 Gaussian 09, Revision C.01,
 Gaussian 09:  EM64L-G09RevC.01 23-Sep-2011

 -----------------------------------------
 # b3lyp/6-31g* geom=connectivity opt freq
 -----------------------------------------

 99/9=1/99;
 -------------------
 Title Card Required
 -------------------
 Charge =  0 Multiplicity = 2

 SCF Done:  E(UB3LYP) =  -959.025579626     A.U. after   14 cycles
 SCF Done:  E(UB3LYP) =  -959.033135686     A.U. after   14 cycles
 SCF Done:  E(UB3LYP) =  -959.034049615     A.U. after   13 cycles
 SCF Done:  E(UB3LYP) =  -959.034105097     A.U. after   12 cycles
 SCF Done:  E(UB3LYP) =  -959.034107578     A.U. after    9 cycles
 SCF Done:  E(UB3LYP) =  -959.034108072     A.U. after    9 cycles
 Optimization completed.
    -- Stationary point found.
 Normal termination of Gaussian 09 at Mon Feb 22 15:00:24 2021.

 --------------------------------------------------------------------
 #N Geom=AllCheck Guess=TCheck SCRF=Check GenChk UB3LYP/6-31G(d) Freq
 --------------------------------------------------------------------

 Structure from the checkpoint file:  chcl2.chk
 -------------------
 Title Card Required
 -------------------
 Charge =  0 Multiplicity = 2

                         Standard orientation:
 ---------------------------------------------------------------------
 Center     Atomic      Atomic             Coordinates (Angstroms)
 Number     Number       Type             X           Y           Z
 ---------------------------------------------------------------------
      1          6           0       -0.012142    0.696417    0.000000
      2          1           0        0.485698    1.657979    0.000000
      3         17           0       -0.012142   -0.171661    1.484884
      4         17           0       -0.012142   -0.171661   -1.484884
 ---------------------------------------------------------------------

 SCF Done:  E(UB3LYP) =  -959.034108072     A.U. after    1 cycles

 The electronic state is 2-A'.
 Alpha  occ. eigenvalues -- -101.57679-101.57679 -10.30866  -9.49311  -9.49310
 Alpha  occ. eigenvalues --   -7.25671  -7.25669  -7.24856  -7.24855  -7.24667
 Alpha  occ. eigenvalues --   -7.24667  -0.92440  -0.85290  -0.64845  -0.49303
 Alpha  occ. eigenvalues --   -0.46894  -0.41900  -0.34743  -0.34070  -0.33026
 Alpha  occ. eigenvalues --   -0.22359
 Alpha virt. eigenvalues --   -0.01108   0.06072   0.11856   0.30560   0.37690
 Alpha virt. eigenvalues --    0.40523   0.41157   0.41176   0.43199   0.46332
 Alpha virt. eigenvalues --    0.48881   0.51671   0.53393   0.62953   0.75896

  Beta  occ. eigenvalues -- -101.57604-101.57604 -10.29455  -9.49240  -9.49239
  Beta  occ. eigenvalues --   -7.25658  -7.25657  -7.24626  -7.24626  -7.24591
  Beta  occ. eigenvalues --   -7.24590  -0.91233  -0.84811  -0.62398  -0.48414
  Beta  occ. eigenvalues --   -0.46117  -0.38475  -0.33846  -0.33464  -0.32827
  Beta virt. eigenvalues --   -0.08440   0.00582   0.07340   0.12641   0.30749
  Beta virt. eigenvalues --    0.37865   0.40949   0.41440   0.41785   0.43366
  Beta virt. eigenvalues --    0.46752   0.48996   0.52695   0.58836   0.63695

 Mulliken atomic charges:
              1
     1  C   -0.326148
     2  H    0.227499
     3  Cl   0.049324
     4  Cl   0.049324
 Sum of Mulliken atomic charges =   0.00000

 Dipole moment (field-independent basis, Debye):
    X=              0.5331    Y=              0.9054    Z=              0.0000  Tot=              1.0508
 Quadrupole moment (field-independent basis, Debye-Ang):
   XX=            -31.4117   YY=            -29.1760   ZZ=            -31.1016
   XY=              0.8993   XZ=              0.0000   YZ=              0.0000

  Exact polarizability:  15.854   1.384  24.630   0.000   0.000  45.170
 Approx polarizability:  21.759   1.399  35.341   0.000   0.000  65.301

                     1                      2                      3
                    A'                     A'                     A'
 Frequencies --   304.9139               481.1237               755.9114
 Red. masses --    19.9939                 1.5847                 4.8543
 Frc consts  --     1.0952                 0.2161                 1.6343
 IR Inten    --     0.6547                28.5018                16.8855

                     4                      5                      6
                    A"                     A"                     A'
 Frequencies --   877.2279              1267.3935              3247.9574
 Red. masses --     7.7052                 1.1038                 1.0886
 Frc consts  --     3.4935                 1.0446                 6.7659
 IR Inten    --   189.1689                46.2922                 2.2006

 - Thermochemistry -
 -------------------
 Temperature   298.150 Kelvin.  Pressure   1.00000 Atm.
 Atom     1 has atomic number  6 and mass  12.00000

 Molecular mass:    82.94553 amu.
 Principal axes and moments of inertia in atomic units:
                           1         2         3
     Eigenvalues --    38.74910 551.31067 588.78525
           X            0.00000   0.08067   0.99674
           Y            0.00000   0.99674  -0.08067
           Z            1.00000   0.00000   0.00000
 This molecule is an asymmetric top.
 Rotational symmetry number  1.
 Rotational temperatures (Kelvin)      2.23525     0.15711     0.14711
 Rotational constants (GHZ):          46.57505     3.27355     3.06519
 Zero-point vibrational energy      41477.7 (Joules/Mol)
                                    9.91341 (Kcal/Mol)
 Warning -- explicit consideration of   2 degrees of freedom as
           vibrations may cause significant error
 Vibrational temperatures:    438.70   692.23  1087.59  1262.13  1823.49
          (Kelvin)           4673.08

 Zero-point correction=                           0.015798 (Hartree/Particle)
 Thermal correction to Energy=                    0.019447
 Thermal correction to Enthalpy=                  0.020391
 Thermal correction to Gibbs Free Energy=        -0.011496
 Sum of electronic and zero-point Energies=           -959.018310
 Sum of electronic and thermal Energies=              -959.014661
 Sum of electronic and thermal Enthalpies=            -959.013717
 Sum of electronic and thermal Free Energies=         -959.045604

                     E (Thermal)             CV                S
                      KCal/Mol        Cal/Mol-Kelvin    Cal/Mol-Kelvin
 Total                   12.203             10.341             67.111
 Electronic               0.000              0.000              1.377
 Translational            0.889              2.981             39.161
 Rotational               0.889              2.981             24.046
 Vibrational             10.426              4.379              2.527
 Vibration     1          0.696              1.664              1.390
 Vibration     2          0.837              1.292              0.707

 Optimization completed.
    -- Stationary point found.
 Normal termination of Gaussian 09 at Mon Feb 22 15:00:31 2021.
