 Gaussian 09, Revision C.01,
 Gaussian 09:  EM64L-G09RevC.01 23-Sep-2011

 -----------------------------------------
 # b3lyp/6-31g* geom=connectivity opt freq
 -----------------------------------------

 99/9=1/99;
 -------------------
 Title Card Required
 -------------------
 Charge =  0 Multiplicity = 1

 SCF Done:  E(RB3LYP) =  -959.694078585     A.U. after   12 cycles
 SCF Done:  E(RB3LYP) =  -959.696271447     A.U. after   13 cycles
 SCF Done:  E(RB3LYP) =  -959.696348123     A.U. after    8 cycles
 SCF Done:  E(RB3LYP) =  -959.696354038     A.U. after    7 cycles
 Optimization completed.
    -- Stationary point found.
 Normal termination of Gaussian 09 at Mon Feb 22 14:50:07 2021.

 --------------------------------------------------------------------
 #N Geom=AllCheck Guess=TCheck SCRF=Check GenChk RB3LYP/6-31G(d) Freq
 --------------------------------------------------------------------

 Structure from the checkpoint file:  ch2cl2.chk
 -------------------
 Title Card Required
 -------------------
 Charge =  0 Multiplicity = 1

                         Standard orientation:
 ---------------------------------------------------------------------
 Center     Atomic      Atomic             Coordinates (Angstroms)
 Number     Number       Type             X           Y           Z
 ---------------------------------------------------------------------
      1          6           0        0.000000    0.000000    0.767748
      2          1           0       -0.898963    0.000000    1.380024
      3          1           0        0.898963    0.000000    1.380024
      4         17           0        0.000000    1.495904   -0.216663
      5         17           0        0.000000   -1.495904   -0.216663
 ---------------------------------------------------------------------

 SCF Done:  E(RB3LYP) =  -959.696354038     A.U. after    1 cycles

 The electronic state is 1-A1.
 Alpha  occ. eigenvalues -- -101.55845-101.55845 -10.31472  -9.47522  -9.47521
 Alpha  occ. eigenvalues --   -7.23960  -7.23958  -7.22924  -7.22924  -7.22879
 Alpha  occ. eigenvalues --   -7.22878  -0.90539  -0.83021  -0.67265  -0.50274
 Alpha  occ. eigenvalues --   -0.46477  -0.44883  -0.33283  -0.32936  -0.31407
 Alpha  occ. eigenvalues --   -0.30966
 Alpha virt. eigenvalues --   -0.01598   0.02853   0.09225   0.11567   0.34178
 Alpha virt. eigenvalues --    0.38592   0.41543   0.41591   0.42533   0.45737
 Alpha virt. eigenvalues --    0.47124   0.50322   0.50860   0.51695   0.61574

 Mulliken atomic charges:
              1
     1  C   -0.444839
     2  H    0.241911
     3  H    0.241911
     4  Cl  -0.019492
     5  Cl  -0.019492
 Sum of Mulliken atomic charges =   0.00000

 Dipole moment (field-independent basis, Debye):
    X=              0.0000    Y=              0.0000    Z=              1.8525  Tot=              1.8525
 Quadrupole moment (field-independent basis, Debye-Ang):
   XX=            -31.1864   YY=            -33.9670   ZZ=            -29.5569
   XY=              0.0000   XZ=              0.0000   YZ=              0.0000

  Exact polarizability:  20.242   0.000  42.666   0.000   0.000  25.689
 Approx polarizability:  27.269   0.000  59.490   0.000   0.000  36.380

                     1                      2                      3
                    B2                     B2                     ?A
 Frequencies --   282.1032               684.2065               713.3386
 Red. masses --    19.3024                 6.6512                 7.1098
 Frc consts  --     0.9051                 1.8345                 2.1316
 IR Inten    --     0.6164                12.2935               133.5658

                     4                      5                      6
                    B2                     ?A                     ?A
 Frequencies --   793.1383               912.4049              1270.0318
 Red. masses --     2.4471                 2.1999                 1.0956
 Frc consts  --     0.9070                 1.0790                 1.0412
 IR Inten    --     2.4441                40.3850                37.7871

                     7                      8                      9
                    B2                     B2                     B2
 Frequencies --  1329.7754              2337.5453              3186.1124
 Red. masses --     1.2377                 2.2776                 1.0902
 Frc consts  --     1.2895                 7.3324                 6.5206
 IR Inten    --     1.0341                 4.4572                 4.2161

 - Thermochemistry -
 -------------------
 Temperature   298.150 Kelvin.  Pressure   1.00000 Atm.
 Atom     1 has atomic number  6 and mass  12.00000

 Molecular mass:    84.95963 amu.
 Principal axes and moments of inertia in atomic units:
                           1         2         3
     Eigenvalues --    66.09008 567.14753 616.69800
           X            0.00000  -0.09171   0.99579
           Y            1.00000   0.00000   0.00000
           Z            0.00000   0.99579   0.09171
 This molecule is an asymmetric top.
 Rotational symmetry number  2.
 Rotational temperatures (Kelvin)      1.31054     0.15272     0.14045
 Rotational constants (GHZ):          27.30729     3.18214     2.92646
 Zero-point vibrational energy      68837.1 (Joules/Mol)
                                   16.45245 (Kcal/Mol)
 Warning -- explicit consideration of   1 degrees of freedom as
           vibrations may cause significant error
 Vibrational temperatures:    405.88   984.42  1026.33  1141.15  1312.75
          (Kelvin)           1827.29  1913.25  3363.20  4584.10

 Zero-point correction=                           0.026219 (Hartree/Particle)
 Thermal correction to Energy=                    0.029875
 Thermal correction to Enthalpy=                  0.030820
 Thermal correction to Gibbs Free Energy=        -0.000085
 Sum of electronic and zero-point Energies=           -959.670135
 Sum of electronic and thermal Energies=              -959.666479
 Sum of electronic and thermal Enthalpies=            -959.665534
 Sum of electronic and thermal Free Energies=         -959.696439

                     E (Thermal)             CV                S
                      KCal/Mol        Cal/Mol-Kelvin    Cal/Mol-Kelvin
 Total                   18.747             10.778             65.043
 Electronic               0.000              0.000              0.000
 Translational            0.889              2.981             39.232
 Rotational               0.889              2.981             23.273
 Vibrational             16.970              4.817              2.538
 Vibration     1          0.681              1.707              1.521

 Optimization completed.
    -- Stationary point found.
 Normal termination of Gaussian 09 at Mon Feb 22 14:50:12 2021.
