 Gaussian 09, Revision C.01,
 Gaussian 09:  EM64L-G09RevC.01 23-Sep-2011

 -----------------------------------------
 # b3lyp/6-31g* geom=connectivity opt freq
 -----------------------------------------

 99/9=1/99;
 -------------------
 Title Card Required
 -------------------
 Charge =  0 Multiplicity = 2

 SCF Done:  E(UB3LYP) =  -460.136242222     A.U. after   10 cycles
 Optimization completed.
    -- Stationary point found.
 Normal termination of Gaussian 09 at Mon Feb 22 14:35:53 2021.

 --------------------------------------------------------------------
 #N Geom=AllCheck Guess=TCheck SCRF=Check GenChk UB3LYP/6-31G(d) Freq
 --------------------------------------------------------------------

 Structure from the checkpoint file:  cl.chk
 -------------------
 Title Card Required
 -------------------
 Charge =  0 Multiplicity = 2

                         Standard orientation:
 ---------------------------------------------------------------------
 Center     Atomic      Atomic             Coordinates (Angstroms)
 Number     Number       Type             X           Y           Z
 ---------------------------------------------------------------------
      1         17           0        0.000000    0.000000    0.000000
 ---------------------------------------------------------------------

 SCF Done:  E(UB3LYP) =  -460.136242222     A.U. after    1 cycles

 Unable to determine electronic state:  an orbital has unidentified symmetry.
 Alpha  occ. eigenvalues -- -101.59790  -9.51080  -7.28568  -7.26232  -7.26232
 Alpha  occ. eigenvalues --   -0.84502  -0.40765  -0.35224  -0.35224
 Alpha virt. eigenvalues --    0.32222   0.39579   0.42573   0.42573   0.78069
 Alpha virt. eigenvalues --    0.79441   0.79441   0.84049   0.84049   4.15353
  Beta  occ. eigenvalues -- -101.59109  -9.50436  -7.26397  -7.25843  -7.25843
  Beta  occ. eigenvalues --   -0.79151  -0.33603  -0.33603
  Beta virt. eigenvalues --   -0.24572   0.33828   0.43208   0.43208   0.43723
  Beta virt. eigenvalues --    0.84953   0.84953   0.85541   0.85541   0.86478
  Beta virt. eigenvalues --    4.17523

 Mulliken atomic charges:
              1
     1  Cl   0.000000
 Sum of Mulliken atomic charges =   0.00000

 Dipole moment (field-independent basis, Debye):
    X=              0.0000    Y=              0.0000    Z=              0.0000  Tot=              0.0000
 Quadrupole moment (field-independent basis, Debye-Ang):
   XX=            -12.9360   YY=            -12.9360   ZZ=            -10.7323
   XY=              0.0000   XZ=              0.0000   YZ=              0.0000

  Exact polarizability:   5.542   0.000   5.542   0.000   0.000   5.795
 Approx polarizability:   6.396   0.000   6.396   0.000   0.000   7.848

 - Thermochemistry -
 -------------------
 Temperature   298.150 Kelvin.  Pressure   1.00000 Atm.
 Atom     1 has atomic number 17 and mass  34.96885
 Molecular mass:    34.96885 amu.
 Zero-point vibrational energy          0.0 (Joules/Mol)
                                    0.00000 (Kcal/Mol)
 Vibrational temperatures:
          (Kelvin)

 Zero-point correction=                           0.000000 (Hartree/Particle)
 Thermal correction to Energy=                    0.001416
 Thermal correction to Enthalpy=                  0.002360
 Thermal correction to Gibbs Free Energy=        -0.015677
 Sum of electronic and zero-point Energies=           -460.136242
 Sum of electronic and thermal Energies=              -460.134826
 Sum of electronic and thermal Enthalpies=            -460.133882
 Sum of electronic and thermal Free Energies=         -460.151919

                     E (Thermal)             CV                S
                      KCal/Mol        Cal/Mol-Kelvin    Cal/Mol-Kelvin
 Total                    0.889              2.981             37.964
 Electronic               0.000              0.000              1.377
 Translational            0.889              2.981             36.586
 Rotational               0.000              0.000              0.000
 Vibrational              0.000              0.000              0.000

 Optimization completed.
    -- Stationary point found.
 Normal termination of Gaussian 09 at Mon Feb 22 14:35:54 2021.
