 Gaussian 09, Revision C.01,
 Gaussian 09:  EM64L-G09RevC.01 23-Sep-2011

 -----------------------------------------
 # b3lyp/6-31g* geom=connectivity opt freq
 -----------------------------------------

 99/9=1/99;
 -------------------
 Title Card Required
 -------------------
 Charge =  0 Multiplicity = 1

 SCF Done:  E(RB3LYP) =  -460.795693909     A.U. after   10 cycles
 SCF Done:  E(RB3LYP) =  -460.795694055     A.U. after    6 cycles
 Optimization completed.
    -- Stationary point found.
 Normal termination of Gaussian 09 at Mon Feb 22 14:40:56 2021.

 --------------------------------------------------------------------
 #N Geom=AllCheck Guess=TCheck SCRF=Check GenChk RB3LYP/6-31G(d) Freq
 --------------------------------------------------------------------

 Structure from the checkpoint file:  hcl.chk
 -------------------
 Title Card Required
 -------------------
 Charge =  0 Multiplicity = 1

                         Standard orientation:
 ---------------------------------------------------------------------
 Center     Atomic      Atomic             Coordinates (Angstroms)
 Number     Number       Type             X           Y           Z
 ---------------------------------------------------------------------
      1         17           0        0.000000    0.000000    0.071638
      2          1           0        0.000000    0.000000   -1.217840
 ---------------------------------------------------------------------

 SCF Done:  E(RB3LYP) =  -460.795694055     A.U. after    1 cycles

 The electronic state is 1-SG.
 Alpha  occ. eigenvalues -- -101.55583  -9.47371  -7.23795  -7.22743  -7.22743
 Alpha  occ. eigenvalues --   -0.84918  -0.47626  -0.33147  -0.33147
 Alpha virt. eigenvalues --    0.01007   0.36970   0.40572   0.43660   0.43660
 Alpha virt. eigenvalues --    0.68261   0.83361   0.83361   0.86453   0.86454
 Alpha virt. eigenvalues --    1.17501   4.20330

 Mulliken atomic charges:
              1
     1  Cl  -0.226311
     2  H    0.226311
 Sum of Mulliken atomic charges =   0.00000

 Dipole moment (field-independent basis, Debye):
    X=              0.0000    Y=              0.0000    Z=             -1.4681  Tot=              1.4681
 Quadrupole moment (field-independent basis, Debye-Ang):
   XX=            -13.8984   YY=            -13.8984   ZZ=            -10.3329
   XY=              0.0000   XZ=              0.0000   YZ=              0.0000

  Exact polarizability:   6.187   0.000   6.187   0.000   0.000  13.207
 Approx polarizability:   7.506   0.000   7.506   0.000   0.000  18.777

                     1
                    SG
 Frequencies --  2930.2102
 Red. masses --     1.0360
 Frc consts  --     5.2410
 IR Inten    --     9.9221

 - Thermochemistry -
 -------------------
 Temperature   298.150 Kelvin.  Pressure   1.00000 Atm.
 Atom     1 has atomic number 17 and mass  34.96885

 Molecular mass:    35.97668 amu.
 Principal axes and moments of inertia in atomic units:
                           1         2         3
     Eigenvalues --     0.00000   5.81662   5.81662
           X            0.00000   0.00000   1.00000
           Y            0.00000   1.00000   0.00000
           Z            1.00000   0.00000   0.00000
 This molecule is a prolate symmetric top.
 Rotational symmetry number  1.
 Rotational temperature (Kelvin)     14.89075
 Rotational constant (GHZ):         310.273181
 Zero-point vibrational energy      17526.5 (Joules/Mol)
                                    4.18895 (Kcal/Mol)
 Vibrational temperatures:   4215.91
          (Kelvin)

 Zero-point correction=                           0.006676 (Hartree/Particle)
 Thermal correction to Energy=                    0.009036
 Thermal correction to Enthalpy=                  0.009980
 Thermal correction to Gibbs Free Energy=        -0.011217
 Sum of electronic and zero-point Energies=           -460.789019
 Sum of electronic and thermal Energies=              -460.786658
 Sum of electronic and thermal Enthalpies=            -460.785714
 Sum of electronic and thermal Free Energies=         -460.806911

                     E (Thermal)             CV                S
                      KCal/Mol        Cal/Mol-Kelvin    Cal/Mol-Kelvin
 Total                    5.670              4.968             44.613
 Electronic               0.000              0.000              0.000
 Translational            0.889              2.981             36.671
 Rotational               0.592              1.987              7.943
 Vibrational              4.189              0.000              0.000

 Optimization completed.
    -- Stationary point found.
 Normal termination of Gaussian 09 at Mon Feb 22 14:40:58 2021.
