 Gaussian 09, Revision C.01,
 Gaussian 09:  EM64L-G09RevC.01 23-Sep-2011

 -----------------------------------------------------
 # b3lyp/6-31g* geom=connectivity opt=(ts,calcfc) freq
 -----------------------------------------------------

 99/9=1/99;
 -------------------
 Title Card Required
 -------------------
 Charge =  0 Multiplicity = 2

 SCF Done:  E(UB3LYP) =  -1419.82318022     A.U. after   17 cycles
 SCF Done:  E(UB3LYP) =  -1419.82688277     A.U. after   17 cycles
 SCF Done:  E(UB3LYP) =  -1419.82723542     A.U. after   13 cycles
 SCF Done:  E(UB3LYP) =  -1419.82723773     A.U. after   13 cycles
 SCF Done:  E(UB3LYP) =  -1419.82723832     A.U. after    9 cycles
 Optimization completed.
    -- Stationary point found.
 Normal termination of Gaussian 09 at Mon Feb 22 16:15:42 2021.

 --------------------------------------------------------------------
 #N Geom=AllCheck Guess=TCheck SCRF=Check GenChk UB3LYP/6-31G(d) Freq
 --------------------------------------------------------------------

 Structure from the checkpoint file:  ts_h.chk
 -------------------
 Title Card Required
 -------------------
 Charge =  0 Multiplicity = 2

                         Standard orientation:
 ---------------------------------------------------------------------
 Center     Atomic      Atomic             Coordinates (Angstroms)
 Number     Number       Type             X           Y           Z
 ---------------------------------------------------------------------
      1          6           0        0.696127    0.024162    0.000000
      2          1           0        1.422579    0.835328    0.000000
      3          1           0       -0.514710    0.782135    0.000000
      4         17           0        0.696127   -0.881560    1.480576
      5         17           0        0.696127   -0.881560   -1.480576
      6         17           0       -1.691349    1.659447    0.000000
 ---------------------------------------------------------------------

 SCF Done:  E(UB3LYP) =  -1419.82723832     A.U. after    1 cycles

 The electronic state is 2-A'.
 Alpha  occ. eigenvalues -- -101.60199-101.60199-101.53080 -10.35427  -9.51837
 Alpha  occ. eigenvalues --   -9.51836  -9.44741  -7.28241  -7.28239  -7.27367
 Alpha  occ. eigenvalues --   -7.27366  -7.27160  -7.27160  -7.21403  -7.20113
 Alpha  occ. eigenvalues --   -7.20109  -0.95500  -0.87738  -0.81534  -0.68939
 Alpha  occ. eigenvalues --   -0.52473  -0.51224  -0.49583  -0.39565  -0.37139
 Alpha  occ. eigenvalues --   -0.36239  -0.35234  -0.31025  -0.30938  -0.27721
 Alpha virt. eigenvalues --   -0.03577   0.01918   0.08330   0.10981   0.29585
 Alpha virt. eigenvalues --    0.34035   0.35521   0.37545   0.38386   0.40557
 Alpha virt. eigenvalues --    0.41039   0.42598   0.42677   0.46829   0.47633

  Beta  occ. eigenvalues -- -101.60117-101.60117-101.52819 -10.34470  -9.51760
  Beta  occ. eigenvalues --   -9.51759  -9.44497  -7.28183  -7.28181  -7.27133
  Beta  occ. eigenvalues --   -7.27133  -7.27105  -7.27104  -7.20583  -7.19963
  Beta  occ. eigenvalues --   -7.19960  -0.94550  -0.87241  -0.79815  -0.67048
  Beta  occ. eigenvalues --   -0.51354  -0.48933  -0.48546  -0.37720  -0.35946
  Beta  occ. eigenvalues --   -0.35754  -0.35018  -0.30457  -0.30362
  Beta virt. eigenvalues --   -0.18119  -0.02589   0.02922   0.09049   0.12741
  Beta virt. eigenvalues --    0.29819   0.34210   0.36208   0.37859   0.38763
  Beta virt. eigenvalues --    0.41006   0.41389   0.42944   0.43526   0.46972

 Mulliken atomic charges:
              1
     1  C   -0.413156
     2  H    0.274084
     3  H    0.128153
     4  Cl   0.107832
     5  Cl   0.107832
     6  Cl  -0.204744
 Sum of Mulliken atomic charges =   0.00000

 Dipole moment (field-independent basis, Debye):
    X=              2.8236    Y=             -1.0290    Z=              0.0000  Tot=              3.0052
 Quadrupole moment (field-independent basis, Debye-Ang):
   XX=            -46.1820   YY=            -46.8772   ZZ=            -43.9565
   XY=              3.6861   XZ=              0.0000   YZ=              0.0000

  Exact polarizability:  48.915 -21.507  50.506   0.000   0.000  53.381
 Approx polarizability:  66.485 -28.309  69.914   0.000   0.000  80.906

 ******    1 imaginary frequencies (negative Signs) ******

                     1                      2                      3
                    A'                     A"                     A'
 Frequencies --  -757.3327                85.7568               149.9622
 Red. masses --     2.4439                23.4781                 8.8355
 Frc consts  --     0.8259                 0.1017                 0.1171
 IR Inten    --     4.6131                 1.7092                 1.6395

                     4                      5                      6
                    A'                     A'                     A"
 Frequencies --   294.2044               396.2160               672.4661
 Red. masses --     9.4593                 3.8015                 2.1333
 Frc consts  --     0.4824                 0.3516                 0.5684
 IR Inten    --     2.8817                 6.4648                16.2421

                     7                      8                      9
                    A'                     A'                     A"
 Frequencies --   704.7508               767.5210               841.9804
 Red. masses --     2.7525                 6.0147                 7.0397
 Frc consts  --     0.8055                 2.0876                 2.9404
 IR Inten    --     5.6115                63.5318               189.3392

                    10                     11                     12
                    A'                     A"                     A'
 Frequencies --  1031.2673              1268.4158              3182.9476
 Red. masses --     1.2423                 1.1036                 1.0873
 Frc consts  --     0.7784                 1.0462                 6.4900
 IR Inten    --    14.7718                28.1520                 9.3447

 - Thermochemistry -
 -------------------
 Temperature   298.150 Kelvin.  Pressure   1.00000 Atm.
 Atom     1 has atomic number  6 and mass  12.00000

 Molecular mass:   119.92849 amu.
 Principal axes and moments of inertia in atomic units:
                           1         2         3
     Eigenvalues --   571.948881053.008571576.02578
           X           -0.69404   0.00000   0.71993
           Y            0.71993   0.00000   0.69404
           Z            0.00000   1.00000   0.00000
 This molecule is an asymmetric top.
 Rotational symmetry number  1.
 Warning -- assumption of classical behavior for rotation
           may cause significant error
 Rotational temperatures (Kelvin)      0.15144     0.08225     0.05496
 Rotational constants (GHZ):           3.15542     1.71389     1.14512
    1 imaginary frequencies ignored.
 Zero-point vibrational energy      56197.5 (Joules/Mol)
                                   13.43152 (Kcal/Mol)
 Warning -- explicit consideration of   4 degrees of freedom as
           vibrations may cause significant error
 Vibrational temperatures:    123.38   215.76   423.29   570.07   967.53
          (Kelvin)           1013.98  1104.29  1211.42  1483.76  1824.97
                             4579.55

 Zero-point correction=                           0.021404 (Hartree/Particle)
 Thermal correction to Energy=                    0.026819
 Thermal correction to Enthalpy=                  0.027763
 Thermal correction to Gibbs Free Energy=        -0.010247
 Sum of electronic and zero-point Energies=          -1419.805834
 Sum of electronic and thermal Energies=             -1419.800419
 Sum of electronic and thermal Enthalpies=           -1419.799475
 Sum of electronic and thermal Free Energies=        -1419.837485

                     E (Thermal)             CV                S
                      KCal/Mol        Cal/Mol-Kelvin    Cal/Mol-Kelvin
 Total                   16.829             16.488             79.998
 Electronic               0.000              0.000              1.377
 Translational            0.889              2.981             40.260
 Rotational               0.889              2.981             28.342
 Vibrational             15.052             10.526             10.019
 Vibration     1          0.601              1.959              3.755
 Vibration     2          0.618              1.903              2.673
 Vibration     3          0.689              1.685              1.450
 Vibration     4          0.763              1.478              0.977

 Normal termination of Gaussian 09 at Mon Feb 22 16:16:00 2021.
