 Gaussian 09, Revision C.01,
 Gaussian 09:  EM64L-G09RevC.01 23-Sep-2011

 ----------------------------------------
 # b3lyp/6-31g geom=connectivity opt freq
 ----------------------------------------

 99/9=1/99;
 -------------------
 Title Card Required
 -------------------
 Charge =  0 Multiplicity = 1

 SCF Done:  E(RB3LYP) =  -155.944223720     A.U. after   12 cycles
 SCF Done:  E(RB3LYP) =  -155.952961541     A.U. after   12 cycles
 SCF Done:  E(RB3LYP) =  -155.953654745     A.U. after   11 cycles
 SCF Done:  E(RB3LYP) =  -155.953818866     A.U. after   10 cycles
 SCF Done:  E(RB3LYP) =  -155.953825079     A.U. after    7 cycles
 Optimization completed.
    -- Stationary point found.
 Normal termination of Gaussian 09 at Tue Mar  2 11:35:08 2021.

 -----------------------------------------------------------------
 #N Geom=AllCheck Guess=TCheck SCRF=Check GenChk RB3LYP/6-31G Freq
 -----------------------------------------------------------------

 Structure from the checkpoint file:  buta_cis.chk
 -------------------
 Title Card Required
 -------------------
 Charge =  0 Multiplicity = 1

                         Standard orientation:
 ---------------------------------------------------------------------
 Center     Atomic      Atomic             Coordinates (Angstroms)
 Number     Number       Type             X           Y           Z
 ---------------------------------------------------------------------
      1          6           0        0.000000    1.548780   -0.505202
      2          1           0        0.000000    1.172740   -1.524624
      3          1           0        0.000000    2.628225   -0.394453
      4          6           0        0.000000    0.736285    0.565886
      5          1           0        0.000000    1.192735    1.554977
      6          6           0        0.000000   -0.736285    0.565886
      7          1           0        0.000000   -1.192735    1.554977
      8          6           0        0.000000   -1.548780   -0.505202
      9          1           0        0.000000   -1.172740   -1.524624
     10          1           0        0.000000   -2.628225   -0.394453
 ---------------------------------------------------------------------

 SCF Done:  E(RB3LYP) =  -155.953825079     A.U. after    1 cycles

 The electronic state is 1-A1.
 Alpha  occ. eigenvalues --  -10.18991 -10.18970 -10.17898 -10.17897  -0.80207
 Alpha  occ. eigenvalues --   -0.72866  -0.62089  -0.52919  -0.49097  -0.44090
 Alpha  occ. eigenvalues --   -0.41870  -0.36135  -0.34884  -0.31915  -0.22834
 Alpha virt. eigenvalues --   -0.03118   0.09473   0.10170   0.11421   0.15252
 Alpha virt. eigenvalues --    0.19042   0.20299   0.20884   0.30487   0.34185
 Alpha virt. eigenvalues --    0.43491   0.48808   0.53030   0.55411   0.60130

 Mulliken atomic charges:
              1
     1  C   -0.291141
     2  H    0.126720
     3  H    0.128721
     4  C   -0.082463
     5  H    0.118163
     6  C   -0.082463
     7  H    0.118163
     8  C   -0.291141
     9  H    0.126720
    10  H    0.128721
 Sum of Mulliken atomic charges =   0.00000

 Dipole moment (field-independent basis, Debye):
    X=              0.0000    Y=              0.0000    Z=              0.0940  Tot=              0.0940
 Quadrupole moment (field-independent basis, Debye-Ang):
   XX=            -28.0747   YY=            -22.8525   ZZ=            -22.5667
   XY=              0.0000   XZ=              0.0000   YZ=              0.0000

  Exact polarizability:  13.685   0.000  61.868   0.000   0.000  45.669
 Approx polarizability:  16.558   0.000  90.698   0.000   0.000  70.738

 ******    1 imaginary frequencies (negative Signs) ******

                     1                      2                      3
                    A2                     A1                     B1
 Frequencies --  -112.9689               301.7450               525.8391
 Red. masses --     1.4347                 2.5651                 1.1791
 Frc consts  --     0.0108                 0.1376                 0.1921
 IR Inten    --     0.0000                 0.0010                14.2492

                     4                      5                      6
                    B2                     A2                     A1
 Frequencies --   586.1947               761.9529               895.0357
 Red. masses --     2.0809                 1.6958                 2.2200
 Frc consts  --     0.4213                 0.5801                 1.0478
 IR Inten    --     3.5884                 0.0000                 0.0844

                     7                      8                      9
                    A2                     B1                     B1
 Frequencies --   965.7401               967.3117              1047.7653
 Red. masses --     1.3862                 1.3513                 1.1025
 Frc consts  --     0.7617                 0.7450                 0.7131
 IR Inten    --     0.0000               100.0465                27.8174

                    10                     11                     12
                    A2                     A1                     B2
 Frequencies --  1055.4743              1095.5646              1142.4948
 Red. masses --     1.1700                 1.4438                 1.6118
 Frc consts  --     0.7680                 1.0210                 1.2395
 IR Inten    --     0.0000                 0.0210                11.8335

                    13                     14                     15
                    B2                     A1                     B2
 Frequencies --  1353.1404              1395.8689              1487.3689
 Red. masses --     1.2954                 1.2411                 1.1516
 Frc consts  --     1.3974                 1.4248                 1.5010
 IR Inten    --     0.1060                 0.4191                 4.5762

                    16                     17                     18
                    A1                     A1                     B2
 Frequencies --  1508.4104              1688.8853              1720.1283
 Red. masses --     1.3014                 4.2091                 3.5373
 Frc consts  --     1.7446                 7.0736                 6.1666
 IR Inten    --     8.4320                 1.8718                 0.8120

                    19                     20                     21
                    B2                     A1                     B2
 Frequencies --  3149.7662              3165.0839              3169.3580
 Red. masses --     1.0831                 1.0693                 1.0657
 Frc consts  --     6.3311                 6.3112                 6.3073
 IR Inten    --    13.5833                40.3220                 4.8732

                    22                     23                     24
                    A1                     B2                     A1
 Frequencies --  3176.9052              3253.4959              3257.3677
 Red. masses --     1.0816                 1.1141                 1.1145
 Frc consts  --     6.4317                 6.9485                 6.9670
 IR Inten    --     1.3799                25.2055                15.5188

 - Thermochemistry -
 -------------------
 Temperature   298.150 Kelvin.  Pressure   1.00000 Atm.
 Atom     1 has atomic number  6 and mass  12.00000

 Molecular mass:    54.04695 amu.
 Principal axes and moments of inertia in atomic units:
                           1         2         3
     Eigenvalues --    84.54137 321.90632 406.44769
           X            0.00000   0.00000   1.00000
           Y            1.00000   0.00000   0.00000
           Z            0.00000   1.00000   0.00000
 This molecule is an asymmetric top.
 Rotational symmetry number  2.
 Rotational temperatures (Kelvin)      1.02451     0.26907     0.21310
 Rotational constants (GHZ):          21.34743     5.60642     4.44028
    1 imaginary frequencies ignored.
 Zero-point vibrational energy     225322.0 (Joules/Mol)
                                   53.85325 (Kcal/Mol)
 Warning -- explicit consideration of   3 degrees of freedom as
           vibrations may cause significant error
 Vibrational temperatures:    434.14   756.56   843.40  1096.28  1287.76
          (Kelvin)           1389.48  1391.74  1507.50  1518.59  1576.27
                             1643.79  1946.86  2008.34  2139.99  2170.26
                             2429.93  2474.88  4531.81  4553.84  4559.99
                             4570.85  4681.05  4686.62

 Zero-point correction=                           0.085821 (Hartree/Particle)
 Thermal correction to Energy=                    0.089811
 Thermal correction to Enthalpy=                  0.090755
 Thermal correction to Gibbs Free Energy=         0.060422
 Sum of electronic and zero-point Energies=           -155.868004
 Sum of electronic and thermal Energies=              -155.864014
 Sum of electronic and thermal Enthalpies=            -155.863070
 Sum of electronic and thermal Free Energies=         -155.893403

                     E (Thermal)             CV                S
                      KCal/Mol        Cal/Mol-Kelvin    Cal/Mol-Kelvin
 Total                   56.357             13.572             63.841
 Electronic               0.000              0.000              0.000
 Translational            0.889              2.981             37.884
 Rotational               0.889              2.981             22.541
 Vibrational             54.580              7.610              3.416
 Vibration     1          0.694              1.670              1.407
 Vibration     2          0.881              1.193              0.597
 Vibration     3          0.943              1.061              0.474

 Optimization completed.
    -- Stationary point found.
 Normal termination of Gaussian 09 at Tue Mar  2 11:35:15 2021.
