 Gaussian 09, Revision C.01,
 Gaussian 09:  EM64L-G09RevC.01 23-Sep-2011

 --------------------------------------------------
 # b3lyp/6-31g* geom=connectivity opt freq pop=full
 --------------------------------------------------

 99/9=1/99;
 -------------------
 Title Card Required
 -------------------
 Charge =  0 Multiplicity = 1

 SCF Done:  E(RB3LYP) =  -155.984964200     A.U. after   11 cycles
 SCF Done:  E(RB3LYP) =  -155.991828657     A.U. after   10 cycles
 SCF Done:  E(RB3LYP) =  -155.992127958     A.U. after    9 cycles
 SCF Done:  E(RB3LYP) =  -155.992137917     A.U. after    7 cycles
 SCF Done:  E(RB3LYP) =  -155.992138301     A.U. after    6 cycles
 Optimization completed.
    -- Stationary point found.
 Normal termination of Gaussian 09 at Tue Mar  2 11:17:57 2021.

 --------------------------------------------------------------------
 #N Geom=AllCheck Guess=TCheck SCRF=Check GenChk RB3LYP/6-31G(d) Freq
 --------------------------------------------------------------------

 Structure from the checkpoint file:  buta.chk
 -------------------
 Title Card Required
 -------------------
 Charge =  0 Multiplicity = 1

                         Standard orientation:
 ---------------------------------------------------------------------
 Center     Atomic      Atomic             Coordinates (Angstroms)
 Number     Number       Type             X           Y           Z
 ---------------------------------------------------------------------
      1          6           0        0.601838    1.751507    0.000000
      2          1           0        1.524314    2.324182    0.000000
      3          1           0       -0.325300    2.320793    0.000000
      4          6           0        0.601838    0.410956    0.000000
      5          1           0        1.551619   -0.124900    0.000000
      6          6           0       -0.601838   -0.410956    0.000000
      7          1           0       -1.551619    0.124900    0.000000
      8          6           0       -0.601838   -1.751507    0.000000
      9          1           0       -1.524314   -2.324182    0.000000
     10          1           0        0.325300   -2.320793    0.000000
 ---------------------------------------------------------------------

 SCF Done:  E(RB3LYP) =  -155.992138301     A.U. after    1 cycles

 The electronic state is 1-AG.
 Alpha  occ. eigenvalues --  -10.19245 -10.19211 -10.18380 -10.18380  -0.80143
 Alpha  occ. eigenvalues --   -0.72965  -0.60310  -0.55036  -0.46394  -0.45915
 Alpha  occ. eigenvalues --   -0.39137  -0.38492  -0.34433  -0.31981  -0.22902
 Alpha virt. eigenvalues --   -0.02251   0.08547   0.11555   0.12565   0.13073
 Alpha virt. eigenvalues --    0.17485   0.19252   0.21196   0.32519   0.33676
 Alpha virt. eigenvalues --    0.39728   0.47195   0.51674   0.53025   0.57792

 Mulliken atomic charges:
              1
     1  C   -0.352932
     2  H    0.144708
     3  H    0.141461
     4  C   -0.059769
     5  H    0.126533
     6  C   -0.059769
     7  H    0.126533
     8  C   -0.352932
     9  H    0.144708
    10  H    0.141461
 Sum of Mulliken atomic charges =   0.00000

 Dipole moment (field-independent basis, Debye):
    X=              0.0000    Y=              0.0000    Z=              0.0000  Tot=              0.0000
 Quadrupole moment (field-independent basis, Debye-Ang):
   XX=            -22.6612   YY=            -22.8032   ZZ=            -27.9365
   XY=             -0.0822   XZ=              0.0000   YZ=              0.0000

  Exact polarizability:  40.675   9.401  76.188   0.000   0.000  15.514
 Approx polarizability:  53.577  13.513 127.521   0.000   0.000  21.585

                     1                      2                      3
                    AU                     BU                     AG
 Frequencies --   176.1416               296.9309               516.1355
 Red. masses --     2.6413                 2.1651                 2.6905
 Frc consts  --     0.0483                 0.1125                 0.4223
 IR Inten    --     0.2116                 2.6056                 0.0000

                     4                      5                      6
                    AU                     BG                     AG
 Frequencies --   538.6969               781.3476               907.5977
 Red. masses --     1.0739                 1.6603                 1.8156
 Frc consts  --     0.1836                 0.5972                 0.8812
 IR Inten    --     7.9941                 0.0000                 0.0000

                     7                      8                      9
                    AU                     BG                     BG
 Frequencies --   927.9447               931.9062              1003.3320
 Red. masses --     1.3666                 1.3486                 1.1763
 Frc consts  --     0.6933                 0.6901                 0.6977
 IR Inten    --    78.6689                 0.0000                 0.0000

                    10                     11                     12
                    BU                     AU                     AG
 Frequencies --  1011.0537              1064.6732              1240.6094
 Red. masses --     1.1975                 1.0907                 1.9542
 Frc consts  --     0.7212                 0.7284                 1.7721
 IR Inten    --     2.3054                25.7189                 0.0000

                    13                     14                     15
                    AG                     BU                     BU
 Frequencies --  1329.4499              1331.6991              1435.4116
 Red. masses --     1.3512                 1.2799                 1.2543
 Frc consts  --     1.4071                 1.3373                 1.5226
 IR Inten    --     0.0000                 2.0694                 2.6725

                    16                     17                     18
                    AG                     BU                     AG
 Frequencies --  1496.7759              1677.6107              1730.2382
 Red. masses --     1.2197                 3.5143                 4.4427
 Frc consts  --     1.6100                 5.8273                 7.8363
 IR Inten    --     0.0000                12.5016                 0.0000

                    19                     20                     21
                    AG                     BU                     BU
 Frequencies --  3146.6985              3157.1369              3163.6222
 Red. masses --     1.0813                 1.0821                 1.0686
 Frc consts  --     6.3081                 6.3547                 6.3011
 IR Inten    --     0.0000                31.8788                 8.6401

                    22                     23                     24
                    AG                     AG                     BU
 Frequencies --  3164.9681              3246.3616              3246.8108
 Red. masses --     1.0676                 1.1156                 1.1153
 Frc consts  --     6.3010                 6.9273                 6.9274
 IR Inten    --     0.0000                 0.0000                33.0669

 - Thermochemistry -
 -------------------
 Temperature   298.150 Kelvin.  Pressure   1.00000 Atm.
 Atom     1 has atomic number  6 and mass  12.00000

 Molecular mass:    54.04695 amu.
 Principal axes and moments of inertia in atomic units:
                           1         2         3
     Eigenvalues --    42.64750 409.41860 452.06609
           X            0.38461   0.92308   0.00000
           Y            0.92308  -0.38461   0.00000
           Z            0.00000   0.00000   1.00000
 This molecule is an asymmetric top.
 Rotational symmetry number  2.
 Rotational temperatures (Kelvin)      2.03092     0.21155     0.19160
 Rotational constants (GHZ):          42.31764     4.40806     3.99221
 Zero-point vibrational energy     224438.3 (Joules/Mol)
                                   53.64204 (Kcal/Mol)
 Warning -- explicit consideration of   4 degrees of freedom as
           vibrations may cause significant error
 Vibrational temperatures:    253.43   427.22   742.60   775.06  1124.18
          (Kelvin)           1305.83  1335.10  1340.80  1443.57  1454.68
                             1531.83  1784.96  1912.78  1916.02  2065.23
                             2153.52  2413.70  2489.42  4527.39  4542.41
                             4551.74  4553.68  4670.78  4671.43

 Zero-point correction=                           0.085484 (Hartree/Particle)
 Thermal correction to Energy=                    0.090132
 Thermal correction to Enthalpy=                  0.091076
 Thermal correction to Gibbs Free Energy=         0.059689
 Sum of electronic and zero-point Energies=           -155.906654
 Sum of electronic and thermal Energies=              -155.902006
 Sum of electronic and thermal Enthalpies=            -155.901062
 Sum of electronic and thermal Free Energies=         -155.932449

                     E (Thermal)             CV                S
                      KCal/Mol        Cal/Mol-Kelvin    Cal/Mol-Kelvin
 Total                   56.559             15.725             66.060
 Electronic               0.000              0.000              0.000
 Translational            0.889              2.981             37.884
 Rotational               0.889              2.981             22.205
 Vibrational             54.781              9.763              5.971
 Vibration     1          0.628              1.872              2.369
 Vibration     2          0.691              1.679              1.434
 Vibration     3          0.871              1.214              0.619
 Vibration     4          0.894              1.164              0.568

 Optimization completed.
    -- Stationary point found.
 Normal termination of Gaussian 09 at Tue Mar  2 11:18:11 2021.
