 Gaussian 09, Revision C.01,
 Gaussian 09:  EM64L-G09RevC.01 23-Sep-2011

 ----------------------------------------------------
 #td=(50-50,nstates=3) b3lyp/6-31g* geom=connectivity
 ----------------------------------------------------
 -------------------
 Title Card Required
 -------------------
 Charge =  0 Multiplicity = 1

                         Standard orientation:
 ---------------------------------------------------------------------
 Center     Atomic      Atomic             Coordinates (Angstroms)
 Number     Number       Type             X           Y           Z
 ---------------------------------------------------------------------
      1          6           0        0.601838    1.751507    0.000000
      2          1           0        1.524314    2.324182    0.000000
      3          1           0       -0.325300    2.320793    0.000000
      4          6           0        0.601838    0.410956    0.000000
      5          1           0        1.551619   -0.124900    0.000000
      6          6           0       -0.601838   -0.410956    0.000000
      7          1           0       -1.551619    0.124900    0.000000
      8          6           0       -0.601838   -1.751507    0.000000
      9          1           0       -1.524314   -2.324182    0.000000
     10          1           0        0.325300   -2.320793    0.000000
 ---------------------------------------------------------------------

 SCF Done:  E(RB3LYP) =  -155.992138301     A.U. after   12 cycles

 Excitation energies and oscillator strengths:

 Excited State   1:      Triplet-BU     2.7817 eV  445.71 nm  f=0.0000  <S**2>=2.000
      14 -> 17        -0.14909
      15 -> 16         0.71115
      15 <- 16         0.15590
 This state for optimization and/or second-order correction.
 Total Energy, E(TD-HF/TD-KS) =  -155.889912461
 Copying the excited state density for this state as the 1-particle RhoCI density.

 Excited State   2:      Triplet-AG     4.9635 eV  249.79 nm  f=0.0000  <S**2>=2.000
      14 -> 16         0.56519
      15 -> 17        -0.43374

 Excited State   3:      Singlet-BU     6.0426 eV  205.19 nm  f=0.6557  <S**2>=0.000
      15 -> 16         0.70764
      15 <- 16        -0.11247

 Excited State   4:      Triplet-AU     7.0020 eV  177.07 nm  f=0.0000  <S**2>=2.000
      13 -> 16         0.69933

 Excited State   5:      Singlet-AG     7.1038 eV  174.53 nm  f=0.0000  <S**2>=0.000
      14 -> 16         0.54169
      15 -> 17         0.45409

 Excited State   6:      Singlet-AU     7.2013 eV  172.17 nm  f=0.0003  <S**2>=0.000
      13 -> 16         0.70339

 The electronic state is 1-AG.
 Alpha  occ. eigenvalues --  -10.19245 -10.19211 -10.18380 -10.18379  -0.80143
 Alpha  occ. eigenvalues --   -0.72965  -0.60310  -0.55036  -0.46394  -0.45915
 Alpha  occ. eigenvalues --   -0.39137  -0.38492  -0.34433  -0.31981  -0.22902
 Alpha virt. eigenvalues --   -0.02251   0.08547   0.11555   0.12565   0.13073
 Alpha virt. eigenvalues --    0.17485   0.19252   0.21196   0.32519   0.33676
 Alpha virt. eigenvalues --    0.39728   0.47195   0.51674   0.53025   0.57792

 Mulliken atomic charges:
              1
     1  C   -0.352932
     2  H    0.144708
     3  H    0.141461
     4  C   -0.059769
     5  H    0.126533
     6  C   -0.059769
     7  H    0.126533
     8  C   -0.352932
     9  H    0.144708
    10  H    0.141461
 Sum of Mulliken atomic charges =   0.00000

 Dipole moment (field-independent basis, Debye):
    X=              0.0000    Y=              0.0000    Z=              0.0000  Tot=              0.0000
 1\1\GINC-STUDENT-LENOVO-S510\SP\RB3LYP TD-FC\6-31G(d)\C4H6\STUDENT\02-
 Mar-2021\0\\#td=(50-50,nstates=3) b3lyp/6-31g* geom=connectivity\\Titl
 e Card Required\\0,1\C,0,0.601838,1.751507,0.\H,0,1.524314,2.324182,0.
 \H,0,-0.3253,2.320793,0.\C,0,0.601838,0.410956,0.\H,0,1.551619,-0.1249
 ,0.\C,0,-0.601838,-0.410956,0.\H,0,-1.551619,0.1249,0.\C,0,-0.601838,-
 1.751507,0.\H,0,-1.524314,-2.324182,0.\H,0,0.3253,-2.320793,0.\\Versio
 n=EM64L-G09RevC.01\State=1-AG\HF=-155.9921383\RMSD=2.613e-09\PG=C02H [
 SGH(C4H6)]\\@

 Normal termination of Gaussian 09 at Tue Mar  2 12:08:22 2021.
