 Gaussian 09, Revision C.01,
 Gaussian 09:  EM64L-G09RevC.01 23-Sep-2011

 -----------------------------------------
 # b3lyp/6-31g* geom=connectivity opt freq
 -----------------------------------------

 99/9=1/99;
 -------------------
 Title Card Required
 -------------------
 Charge =  0 Multiplicity = 1

 SCF Done:  E(RB3LYP) =  -155.978237980     A.U. after   12 cycles
 SCF Done:  E(RB3LYP) =  -155.984504994     A.U. after   11 cycles
 SCF Done:  E(RB3LYP) =  -155.986294012     A.U. after   13 cycles
 SCF Done:  E(RB3LYP) =  -155.986455615     A.U. after   11 cycles
 SCF Done:  E(RB3LYP) =  -155.986482712     A.U. after   10 cycles
 SCF Done:  E(RB3LYP) =  -155.986483484     A.U. after    7 cycles
 SCF Done:  E(RB3LYP) =  -155.986483797     A.U. after    7 cycles
 Optimization completed.
    -- Stationary point found.
 Normal termination of Gaussian 09 at Tue Mar  2 11:49:37 2021.

 --------------------------------------------------------------------
 #N Geom=AllCheck Guess=TCheck SCRF=Check GenChk RB3LYP/6-31G(d) Freq
 --------------------------------------------------------------------

 Structure from the checkpoint file:  buta_gauge.chk
 -------------------
 Title Card Required
 -------------------
 Charge =  0 Multiplicity = 1

                         Standard orientation:
 ---------------------------------------------------------------------
 Center     Atomic      Atomic             Coordinates (Angstroms)
 Number     Number       Type             X           Y           Z
 ---------------------------------------------------------------------
      1          6           0        0.248040    1.524595   -0.493917
      2          1           0       -0.164908    1.233312   -1.456593
      3          1           0        0.651888    2.530164   -0.419793
      4          6           0        0.248040    0.691996    0.554952
      5          1           0        0.626484    1.057523    1.510177
      6          6           0       -0.248040   -0.691996    0.554952
      7          1           0       -0.626484   -1.057523    1.510177
      8          6           0       -0.248040   -1.524595   -0.493917
      9          1           0        0.164908   -1.233312   -1.456593
     10          1           0       -0.651888   -2.530164   -0.419793
 ---------------------------------------------------------------------

 SCF Done:  E(RB3LYP) =  -155.986483797     A.U. after    1 cycles

 The electronic state is 1-A.
 Alpha  occ. eigenvalues --  -10.19208 -10.19176 -10.18237 -10.18237  -0.79921
 Alpha  occ. eigenvalues --   -0.72404  -0.61594  -0.52763  -0.48637  -0.43324
 Alpha  occ. eigenvalues --   -0.42095  -0.36640  -0.34626  -0.30661  -0.23109
 Alpha virt. eigenvalues --   -0.02290   0.07837   0.10958   0.12594   0.15059
 Alpha virt. eigenvalues --    0.17892   0.19169   0.21227   0.31470   0.33951
 Alpha virt. eigenvalues --    0.40655   0.47795   0.53653   0.53671   0.57689

 Mulliken atomic charges:
              1
     1  C   -0.330851
     2  H    0.142922
     3  H    0.142523
     4  C   -0.084681
     5  H    0.130088
     6  C   -0.084681
     7  H    0.130088
     8  C   -0.330851
     9  H    0.142922
    10  H    0.142523
 Sum of Mulliken atomic charges =   0.00000

 Dipole moment (field-independent basis, Debye):
    X=              0.0000    Y=              0.0000    Z=              0.1198  Tot=              0.1198
 Quadrupole moment (field-independent basis, Debye-Ang):
   XX=            -26.9811   YY=            -23.3907   ZZ=            -22.7800
   XY=              1.5211   XZ=              0.0000   YZ=              0.0000

  Exact polarizability:  20.093   9.341  58.541   0.000   0.000  44.702
 Approx polarizability:  27.238  11.804  84.987   0.000   0.000  70.281

                     1                      2                      3
                     A                      A                      B
 Frequencies --   154.0836               274.7610               479.8719
 Red. masses --     1.5224                 2.5103                 1.3418
 Frc consts  --     0.0213                 0.1117                 0.1821
 IR Inten    --     0.1243                 0.0018                10.4414

                     4                      5                      6
                     B                      A                      A
 Frequencies --   613.2791               757.5553               892.0490
 Red. masses --     1.7470                 1.6659                 2.0723
 Frc consts  --     0.3871                 0.5633                 0.9716
 IR Inten    --     5.1997                 2.7541                 0.4056

                     7                      8                      9
                     A                      B                      A
 Frequencies --   934.4950               935.5520              1025.8055
 Red. masses --     1.3993                 1.3607                 1.1108
 Frc consts  --     0.7200                 0.7017                 0.6887
 IR Inten    --     3.6934                69.8248                 1.1433

                    10                     11                     12
                     B                      A                      B
 Frequencies --  1037.4308              1076.0727              1115.0091
 Red. masses --     1.0852                 1.4669                 1.5898
 Frc consts  --     0.6882                 1.0008                 1.1645
 IR Inten    --    25.3681                 0.0187                 6.0809

                    13                     14                     15
                     B                      A                      B
 Frequencies --  1323.8427              1358.4398              1457.7375
 Red. masses --     1.2774                 1.2934                 1.1605
 Frc consts  --     1.3190                 1.4063                 1.4530
 IR Inten    --     0.3603                 0.1297                 1.2790

                    16                     17                     18
                     A                      A                      B
 Frequencies --  1485.3788              1695.5328              1720.1903
 Red. masses --     1.2736                 4.7445                 3.7002
 Frc consts  --     1.6556                 8.0362                 6.4511
 IR Inten    --     6.5521                 1.6787                 2.0367

                    19                     20                     21
                     B                      A                      B
 Frequencies --  3141.7597              3154.6259              3165.2107
 Red. masses --     1.0843                 1.0789                 1.0626
 Frc consts  --     6.3058                 6.3262                 6.2725
 IR Inten    --    12.6028                35.9707                 6.5076

                    22                     23                     24
                     A                      B                      A
 Frequencies --  3169.5023              3245.5141              3247.8921
 Red. masses --     1.0699                 1.1162                 1.1165
 Frc consts  --     6.3325                 6.9273                 6.9395
 IR Inten    --     0.1307                23.1126                 8.7864

 - Thermochemistry -
 -------------------
 Temperature   298.150 Kelvin.  Pressure   1.00000 Atm.
 Atom     1 has atomic number  6 and mass  12.00000

 Molecular mass:    54.04695 amu.
 Principal axes and moments of inertia in atomic units:
                           1         2         3
     Eigenvalues --    83.98080 321.95778 398.42613
           X            0.20230   0.00000   0.97932
           Y            0.97932   0.00000  -0.20230
           Z            0.00000   1.00000   0.00000
 This molecule is an asymmetric top.
 Rotational symmetry number  2.
 Rotational temperatures (Kelvin)      1.03135     0.26902     0.21739
 Rotational constants (GHZ):          21.48993     5.60552     4.52968
 Zero-point vibrational energy     224070.1 (Joules/Mol)
                                   53.55403 (Kcal/Mol)
 Warning -- explicit consideration of   4 degrees of freedom as
           vibrations may cause significant error
 Vibrational temperatures:    221.69   395.32   690.43   882.37  1089.95
          (Kelvin)           1283.46  1344.53  1346.05  1475.90  1492.63
                             1548.23  1604.25  1904.71  1954.49  2097.36
                             2137.13  2439.49  2474.97  4520.29  4538.80
                             4554.03  4560.20  4669.57  4672.99

 Zero-point correction=                           0.085344 (Hartree/Particle)
 Thermal correction to Energy=                    0.090050
 Thermal correction to Enthalpy=                  0.090994
 Thermal correction to Gibbs Free Energy=         0.059288
 Sum of electronic and zero-point Energies=           -155.901140
 Sum of electronic and thermal Energies=              -155.896434
 Sum of electronic and thermal Enthalpies=            -155.895490
 Sum of electronic and thermal Free Energies=         -155.927195

                     E (Thermal)             CV                S
                      KCal/Mol        Cal/Mol-Kelvin    Cal/Mol-Kelvin
 Total                   56.507             15.773             66.730
 Electronic               0.000              0.000              0.000
 Translational            0.889              2.981             37.884
 Rotational               0.889              2.981             22.514
 Vibrational             54.729              9.811              6.331
 Vibration     1          0.620              1.898              2.621
 Vibration     2          0.677              1.720              1.566
 Vibration     3          0.836              1.295              0.710
 Vibration     4          0.973              1.004              0.427

 Optimization completed.
    -- Stationary point found.
 Normal termination of Gaussian 09 at Tue Mar  2 11:49:58 2021.
