 Gaussian 09, Revision C.01,
 Gaussian 09:  EM64L-G09RevC.01 23-Sep-2011

 ----------------------------------------------------
 #td=(50-50,nstates=3) b3lyp/6-31g* geom=connectivity
 ----------------------------------------------------
 -------------------
 Title Card Required
 -------------------
 Charge =  0 Multiplicity = 1

                         Standard orientation:
 ---------------------------------------------------------------------
 Center     Atomic      Atomic             Coordinates (Angstroms)
 Number     Number       Type             X           Y           Z
 ---------------------------------------------------------------------
      1          6           0        1.193314    2.840251    0.000000
      2          1           0        2.116294    3.411764    0.000000
      3          1           0        0.266373    3.409546    0.000000
      4          6           0        1.193314    1.497185    0.000000
      5          1           0        2.145489    0.965516    0.000000
      6          6           0       -0.001880    0.676124    0.000000
      7          1           0       -0.957735    1.202180    0.000000
      8          6           0        0.001880   -0.676124    0.000000
      9          1           0        0.957735   -1.202180    0.000000
     10          6           0       -1.193314   -1.497185    0.000000
     11          1           0       -2.145489   -0.965516    0.000000
     12          6           0       -1.193314   -2.840251    0.000000
     13          1           0       -2.116294   -3.411764    0.000000
     14          1           0       -0.266373   -3.409546    0.000000
 ---------------------------------------------------------------------

 SCF Done:  E(RB3LYP) =  -233.398547218     A.U. after   13 cycles

 Excitation energies and oscillator strengths:

 Excited State   1:      Triplet-BU     2.0826 eV  595.34 nm  f=0.0000  <S**2>=2.000
      21 -> 24        -0.14864
      22 -> 23         0.71152
      22 <- 23         0.17236
 This state for optimization and/or second-order correction.
 Total Energy, E(TD-HF/TD-KS) =  -233.322013673
 Copying the excited state density for this state as the 1-particle RhoCI density.

 Excited State   2:      Triplet-AG     3.9596 eV  313.12 nm  f=0.0000  <S**2>=2.000
      20 -> 24        -0.11843
      21 -> 23         0.55141
      21 -> 26         0.10085
      22 -> 24        -0.42790

 Excited State   3:      Singlet-BU     4.8700 eV  254.59 nm  f=1.0432  <S**2>=0.000
      22 -> 23         0.71218
      22 <- 23        -0.12135

 Excited State   4:      Triplet-BU     5.2383 eV  236.69 nm  f=0.0000  <S**2>=2.000
      20 -> 23         0.53179
      21 -> 24        -0.26906
      22 -> 26         0.38336

 Excited State   5:      Singlet-AG     5.8185 eV  213.09 nm  f=0.0000  <S**2>=0.000
      21 -> 23         0.55201
      22 -> 24         0.43921

 Excited State   6:      Singlet-BG     5.8664 eV  211.35 nm  f=0.0000  <S**2>=0.000
      19 -> 23         0.70350

 The electronic state is 1-AG.
 Alpha  occ. eigenvalues --  -10.19336 -10.19332 -10.19278 -10.19206 -10.18406
 Alpha  occ. eigenvalues --  -10.18406  -0.81676  -0.77584  -0.71720  -0.61903
 Alpha  occ. eigenvalues --   -0.55721  -0.55311  -0.48262  -0.45762  -0.42841
 Alpha  occ. eigenvalues --   -0.40308  -0.37952  -0.36115  -0.34450  -0.33753
 Alpha  occ. eigenvalues --   -0.28591  -0.20924
 Alpha virt. eigenvalues --   -0.04436   0.04761   0.10068   0.10229   0.12385
 Alpha virt. eigenvalues --    0.13063   0.14325   0.16378   0.18673   0.18731
 Alpha virt. eigenvalues --    0.21033   0.31116   0.33529   0.35104   0.37419

 Mulliken atomic charges:
              1
     1  C   -0.355235
     2  H    0.144705
     3  H    0.141246
     4  C   -0.060004
     5  H    0.126804
     6  C   -0.121722
     7  H    0.124206
     8  C   -0.121722
     9  H    0.124206
    10  C   -0.060004
    11  H    0.126804
    12  C   -0.355235
    13  H    0.144705
    14  H    0.141246
 Sum of Mulliken atomic charges =   0.00000

 Dipole moment (field-independent basis, Debye):
    X=              0.0000    Y=              0.0000    Z=              0.0000  Tot=              0.0000
 1\1\GINC-STUDENT-LENOVO-S510\SP\RB3LYP TD-FC\6-31G(d)\C6H8\STUDENT\02-
 Mar-2021\0\\#td=(50-50,nstates=3) b3lyp/6-31g* geom=connectivity\\Titl
 e Card Required\\0,1\C,0,1.193314,2.840251,0.\H,0,2.116294,3.411764,0.
 \H,0,0.266373,3.409546,0.\C,0,1.193314,1.497185,0.\H,0,2.145489,0.9655
 16,0.\C,0,-0.00188,0.676124,0.\H,0,-0.957735,1.20218,0.\C,0,0.00188,-0
 .676124,0.\H,0,0.957735,-1.20218,0.\C,0,-1.193314,-1.497185,0.\H,0,-2.
 145489,-0.965516,0.\C,0,-1.193314,-2.840251,0.\H,0,-2.116294,-3.411764
 ,0.\H,0,-0.266373,-3.409546,0.\\Version=EM64L-G09RevC.01\State=1-AG\HF
 =-233.3985472\RMSD=3.435e-09\PG=C02H [SGH(C6H8)]\\@

 Normal termination of Gaussian 09 at Tue Mar  2 12:50:54 2021.
