 Gaussian 09, Revision C.01,
 Gaussian 09:  EM64L-G09RevC.01 23-Sep-2011

 -----------------------------------------
 # b3lyp/6-31g* geom=connectivity opt freq
 -----------------------------------------

 99/9=1/99;
 -------------------
 Title Card Required
 -------------------
 Charge =  0 Multiplicity = 1

 SCF Done:  E(RB3LYP) =  -233.366976387     A.U. after   12 cycles
 SCF Done:  E(RB3LYP) =  -233.383988105     A.U. after   12 cycles
 SCF Done:  E(RB3LYP) =  -233.385505364     A.U. after   11 cycles
 SCF Done:  E(RB3LYP) =  -233.386429991     A.U. after   11 cycles
 SCF Done:  E(RB3LYP) =  -233.386437623     A.U. after    8 cycles
 SCF Done:  E(RB3LYP) =  -233.386438301     A.U. after    7 cycles
 Optimization completed.
    -- Stationary point found.
 Normal termination of Gaussian 09 at Tue Mar  2 12:47:02 2021.

 --------------------------------------------------------------------
 #N Geom=AllCheck Guess=TCheck SCRF=Check GenChk RB3LYP/6-31G(d) Freq
 --------------------------------------------------------------------

 Structure from the checkpoint file:  hexa_2cis.chk
 -------------------
 Title Card Required
 -------------------
 Charge =  0 Multiplicity = 1

                         Standard orientation:
 ---------------------------------------------------------------------
 Center     Atomic      Atomic             Coordinates (Angstroms)
 Number     Number       Type             X           Y           Z
 ---------------------------------------------------------------------
      1          6           0        0.660914    2.660622    0.000000
      2          1           0        1.231972    3.583928    0.000000
      3          1           0       -0.421162    2.763940    0.000000
      4          6           0        1.276404    1.467078    0.000000
      5          1           0        2.366058    1.462031    0.000000
      6          6           0        0.660914    0.139742    0.000000
      7          1           0        1.364639   -0.691548    0.000000
      8          6           0       -0.660914   -0.139742    0.000000
      9          1           0       -1.364639    0.691548    0.000000
     10          6           0       -1.276404   -1.467078    0.000000
     11          1           0       -2.366058   -1.462031    0.000000
     12          6           0       -0.660914   -2.660622    0.000000
     13          1           0       -1.231972   -3.583928    0.000000
     14          1           0        0.421162   -2.763940    0.000000
 ---------------------------------------------------------------------

 SCF Done:  E(RB3LYP) =  -233.386438301     A.U. after    1 cycles

 The electronic state is 1-AG.
 Alpha  occ. eigenvalues --  -10.19323 -10.19322 -10.19174 -10.19098 -10.18328
 Alpha  occ. eigenvalues --  -10.18328  -0.81345  -0.77123  -0.70974  -0.63588
 Alpha  occ. eigenvalues --   -0.57075  -0.51570  -0.49109  -0.45403  -0.43936
 Alpha  occ. eigenvalues --   -0.40672  -0.37002  -0.35330  -0.34331  -0.33436
 Alpha  occ. eigenvalues --   -0.28314  -0.20726
 Alpha virt. eigenvalues --   -0.05303   0.04120   0.09680   0.10320   0.12453
 Alpha virt. eigenvalues --    0.12834   0.14472   0.18576   0.19582   0.21342
 Alpha virt. eigenvalues --    0.23587   0.29129   0.31835   0.34474   0.40968

 Mulliken atomic charges:
              1
     1  C   -0.338245
     2  H    0.144791
     3  H    0.141820
     4  C   -0.077145
     5  H    0.127033
     6  C   -0.122651
     7  H    0.124398
     8  C   -0.122651
     9  H    0.124398
    10  C   -0.077145
    11  H    0.127033
    12  C   -0.338245
    13  H    0.144791
    14  H    0.141820
 Sum of Mulliken atomic charges =   0.00000

 Dipole moment (field-independent basis, Debye):
    X=              0.0000    Y=              0.0000    Z=              0.0000  Tot=              0.0000
 Quadrupole moment (field-independent basis, Debye-Ang):
   XX=            -32.7860   YY=            -33.5992   ZZ=            -40.7675
   XY=             -0.0884   XZ=              0.0000   YZ=              0.0000

  Exact polarizability:  68.954  18.349 122.004   0.000   0.000  22.199
 Approx polarizability: 107.204  23.643 191.325   0.000   0.000  31.737

 ******    2 imaginary frequencies (negative Signs) ******

                     1                      2                      3
                    BG                     AU                     BU
 Frequencies --  -103.2744               -54.7711               180.6712
 Red. masses --     1.4940                 2.2983                 3.0257
 Frc consts  --     0.0094                 0.0041                 0.0582
 IR Inten    --     0.0000                 0.0702                 0.0193

                     4                      5                      6
                    AU                     AG                     BU
 Frequencies --   217.4527               281.6490               519.7853
 Red. masses --     1.9574                 3.4963                 2.6430
 Frc consts  --     0.0545                 0.1634                 0.4207
 IR Inten    --     2.5440                 0.0000                18.9073

                     7                      8                      9
                    BG                     AG                     AU
 Frequencies --   597.4699               627.5613               668.4274
 Red. masses --     1.3186                 2.5191                 1.7502
 Frc consts  --     0.2773                 0.5845                 0.4607
 IR Inten    --     0.0000                 0.0000                10.8999

                    10                     11                     12
                    BG                     BG                     AU
 Frequencies --   889.7882               917.2137               917.3591
 Red. masses --     1.9813                 1.4319                 1.3913
 Frc consts  --     0.9242                 0.7098                 0.6898
 IR Inten    --     0.0000                 0.0000                68.2047

                    13                     14                     15
                    AG                     BU                     AU
 Frequencies --   980.2059               987.1913              1017.9870
 Red. masses --     2.8826                 1.9611                 1.0921
 Frc consts  --     1.6318                 1.1260                 0.6668
 IR Inten    --     0.0000                 3.7370                35.6608

                    16                     17                     18
                    AU                     BG                     AG
 Frequencies --  1036.6758              1040.1683              1086.8973
 Red. masses --     1.1207                 1.1127                 1.4914
 Frc consts  --     0.7096                 0.7093                 1.0380
 IR Inten    --    14.7434                 0.0000                 0.0000

                    19                     20                     21
                    BU                     AG                     BU
 Frequencies --  1136.2130              1324.6171              1353.3085
 Red. masses --     1.5790                 1.3280                 1.2601
 Frc consts  --     1.2011                 1.3729                 1.3597
 IR Inten    --     7.2187                 0.0000                 1.6225

                    22                     23                     24
                    BU                     AG                     BU
 Frequencies --  1367.4794              1387.2474              1474.8704
 Red. masses --     1.4436                 1.3043                 1.2452
 Frc consts  --     1.5905                 1.4789                 1.5959
 IR Inten    --    16.7622                 0.0000                 6.3996

                    25                     26                     27
                    AG                     AG                     BU
 Frequencies --  1479.2389              1657.6017              1702.4875
 Red. masses --     1.2544                 4.4386                 3.7429
 Frc consts  --     1.6172                 7.1855                 6.3918
 IR Inten    --     0.0000                 0.0000                 6.0542

                    28                     29                     30
                    AG                     AG                     BU
 Frequencies --  1721.0329              3148.5435              3151.9781
 Red. masses --     3.7661                 1.0872                 1.0827
 Frc consts  --     6.5723                 6.3502                 6.3374
 IR Inten    --     0.0000                 0.0000                42.4651

                    31                     32                     33
                    AG                     BU                     BU
 Frequencies --  3163.8785              3170.5552              3171.7512
 Red. masses --     1.0720                 1.0626                 1.0886
 Frc consts  --     6.3227                 6.2933                 6.4523
 IR Inten    --     0.0000                26.4813                34.6608

                    34                     35                     36
                    AG                     BU                     AG
 Frequencies --  3174.4382              3248.8828              3248.9187
 Red. masses --     1.0783                 1.1159                 1.1158
 Frc consts  --     6.4022                 6.9396                 6.9393
 IR Inten    --     0.0000                29.9989                 0.0000

 - Thermochemistry -
 -------------------
 Temperature   298.150 Kelvin.  Pressure   1.00000 Atm.
 Atom     1 has atomic number  6 and mass  12.00000

 Molecular mass:    80.06260 amu.
 Principal axes and moments of inertia in atomic units:
                           1         2         3
     Eigenvalues --   124.573851114.947181239.52102
           X            0.39667   0.91796   0.00000
           Y            0.91796  -0.39667   0.00000
           Z            0.00000   0.00000   1.00000
 This molecule is an asymmetric top.
 Rotational symmetry number  2.
 Rotational temperatures (Kelvin)      0.69528     0.07768     0.06988
 Rotational constants (GHZ):          14.48732     1.61868     1.45600
    2 imaginary frequencies ignored.
 Zero-point vibrational energy     311325.4 (Joules/Mol)
                                   74.40856 (Kcal/Mol)
 Warning -- explicit consideration of   5 degrees of freedom as
           vibrations may cause significant error
 Vibrational temperatures:    259.95   312.87   405.23   747.85   859.62
          (Kelvin)            902.92   961.72  1280.21  1319.66  1319.87
                             1410.30  1420.35  1464.65  1491.54  1496.57
                             1563.80  1634.75  1905.83  1947.11  1967.50
                             1995.94  2122.01  2128.29  2384.92  2449.50
                             2476.18  4530.05  4534.99  4552.11  4561.72
                             4563.44  4567.30  4674.41  4674.46

 Zero-point correction=                           0.118578 (Hartree/Particle)
 Thermal correction to Energy=                    0.124056
 Thermal correction to Enthalpy=                  0.125000
 Thermal correction to Gibbs Free Energy=         0.090286
 Sum of electronic and zero-point Energies=           -233.267861
 Sum of electronic and thermal Energies=              -233.262382
 Sum of electronic and thermal Enthalpies=            -233.261438
 Sum of electronic and thermal Free Energies=         -233.296153

                     E (Thermal)             CV                S
                      KCal/Mol        Cal/Mol-Kelvin    Cal/Mol-Kelvin
 Total                   77.846             20.055             73.064
 Electronic               0.000              0.000              0.000
 Translational            0.889              2.981             39.055
 Rotational               0.889              2.981             25.268
 Vibrational             76.069             14.094              8.740
 Vibration     1          0.630              1.866              2.321
 Vibration     2          0.646              1.814              1.980
 Vibration     3          0.681              1.708              1.524
 Vibration     4          0.875              1.206              0.610
 Vibration     5          0.955              1.037              0.454

 Optimization completed.
    -- Stationary point found.
 Normal termination of Gaussian 09 at Tue Mar  2 12:47:38 2021.
