 Gaussian 09, Revision C.01,
 Gaussian 09:  EM64L-G09RevC.01 23-Sep-2011

 --------------------------------------------------
 # b3lyp/6-31g* geom=connectivity opt freq pop=full
 --------------------------------------------------

 99/9=1/99;
 -------------------
 Title Card Required
 -------------------
 Charge =  0 Multiplicity = 1

 SCF Done:  E(RB3LYP) =  -233.385592415     A.U. after   13 cycles
 SCF Done:  E(RB3LYP) =  -233.397845266     A.U. after   11 cycles
 SCF Done:  E(RB3LYP) =  -233.398533439     A.U. after   10 cycles
 SCF Done:  E(RB3LYP) =  -233.398546610     A.U. after    8 cycles
 SCF Done:  E(RB3LYP) =  -233.398547218     A.U. after    7 cycles
 Optimization completed.
    -- Stationary point found.
 Normal termination of Gaussian 09 at Tue Mar  2 12:43:28 2021.

 --------------------------------------------------------------------
 #N Geom=AllCheck Guess=TCheck SCRF=Check GenChk RB3LYP/6-31G(d) Freq
 --------------------------------------------------------------------

 Structure from the checkpoint file:  hexa.chk
 -------------------
 Title Card Required
 -------------------
 Charge =  0 Multiplicity = 1

                         Standard orientation:
 ---------------------------------------------------------------------
 Center     Atomic      Atomic             Coordinates (Angstroms)
 Number     Number       Type             X           Y           Z
 ---------------------------------------------------------------------
      1          6           0        1.193314    2.840251    0.000000
      2          1           0        2.116294    3.411764    0.000000
      3          1           0        0.266373    3.409546    0.000000
      4          6           0        1.193314    1.497185    0.000000
      5          1           0        2.145489    0.965516    0.000000
      6          6           0       -0.001880    0.676124    0.000000
      7          1           0       -0.957735    1.202180    0.000000
      8          6           0        0.001880   -0.676124    0.000000
      9          1           0        0.957735   -1.202180    0.000000
     10          6           0       -1.193314   -1.497185    0.000000
     11          1           0       -2.145489   -0.965516    0.000000
     12          6           0       -1.193314   -2.840251    0.000000
     13          1           0       -2.116294   -3.411764    0.000000
     14          1           0       -0.266373   -3.409546    0.000000
 ---------------------------------------------------------------------

 SCF Done:  E(RB3LYP) =  -233.398547218     A.U. after    1 cycles

 The electronic state is 1-AG.
 Alpha  occ. eigenvalues --  -10.19336 -10.19332 -10.19278 -10.19205 -10.18406
 Alpha  occ. eigenvalues --  -10.18406  -0.81676  -0.77584  -0.71720  -0.61903
 Alpha  occ. eigenvalues --   -0.55721  -0.55311  -0.48262  -0.45762  -0.42841
 Alpha  occ. eigenvalues --   -0.40308  -0.37952  -0.36115  -0.34450  -0.33753
 Alpha  occ. eigenvalues --   -0.28591  -0.20924
 Alpha virt. eigenvalues --   -0.04436   0.04761   0.10068   0.10229   0.12385
 Alpha virt. eigenvalues --    0.13063   0.14325   0.16378   0.18673   0.18731
 Alpha virt. eigenvalues --    0.21033   0.31116   0.33529   0.35104   0.37419

 Mulliken atomic charges:
              1
     1  C   -0.355236
     2  H    0.144705
     3  H    0.141246
     4  C   -0.060004
     5  H    0.126804
     6  C   -0.121721
     7  H    0.124206
     8  C   -0.121721
     9  H    0.124206
    10  C   -0.060004
    11  H    0.126804
    12  C   -0.355236
    13  H    0.144705
    14  H    0.141246
 Sum of Mulliken atomic charges =   0.00000

 Dipole moment (field-independent basis, Debye):
    X=              0.0000    Y=              0.0000    Z=              0.0000  Tot=              0.0000
 Quadrupole moment (field-independent basis, Debye-Ang):
   XX=            -33.2333   YY=            -33.6513   ZZ=            -40.8286
   XY=             -0.2136   XZ=              0.0000   YZ=              0.0000

  Exact polarizability:  66.366  30.900 145.665   0.000   0.000  22.373
 Approx polarizability:  90.186  46.039 251.756   0.000   0.000  32.121

                     1                      2                      3
                    AU                     BU                     BG
 Frequencies --   100.5087               147.3991               227.1411
 Red. masses --     3.3364                 2.9670                 2.8265
 Frc consts  --     0.0199                 0.0380                 0.0859
 IR Inten    --     0.2453                 1.9863                 0.0000

                     4                      5                      6
                    AU                     AG                     AG
 Frequencies --   255.5584               351.0411               445.5286
 Red. masses --     1.6297                 2.4976                 4.2747
 Frc consts  --     0.0627                 0.1813                 0.4999
 IR Inten    --     1.2658                 0.0000                 0.0000

                     7                      8                      9
                    BU                     BG                     AU
 Frequencies --   542.6614               618.1539               710.7702
 Red. masses --     2.4973                 1.1701                 1.6254
 Frc consts  --     0.4333                 0.2634                 0.4838
 IR Inten    --     5.7080                 0.0000                 8.0007

                    10                     11                     12
                    BG                     AU                     BG
 Frequencies --   898.5800               920.2773               924.4718
 Red. masses --     1.7734                 1.3456                 1.5143
 Frc consts  --     0.8437                 0.6714                 0.7625
 IR Inten    --     0.0000                75.8870                 0.0000

                    13                     14                     15
                    AG                     AU                     BU
 Frequencies --   954.0157               974.6880               987.1333
 Red. masses --     1.4432                 1.1688                 1.5622
 Frc consts  --     0.7739                 0.6542                 0.8969
 IR Inten    --     0.0000                 3.9959                 2.8149

                    16                     17                     18
                    BG                     AU                     BU
 Frequencies --  1030.8468              1064.4164              1169.9299
 Red. masses --     1.1079                 1.0907                 2.2420
 Frc consts  --     0.6936                 0.7281                 1.8081
 IR Inten    --     0.0000                50.1724                 5.6857

                    19                     20                     21
                    AG                     BU                     AG
 Frequencies --  1232.3029              1296.7855              1328.1362
 Red. masses --     1.8963                 1.3058                 1.5545
 Frc consts  --     1.6966                 1.2938                 1.6155
 IR Inten    --     0.0000                 2.7533                 0.0000

                    22                     23                     24
                    BU                     AG                     AG
 Frequencies --  1339.7357              1343.9655              1455.0100
 Red. masses --     1.2911                 1.3145                 1.2922
 Frc consts  --     1.3654                 1.3989                 1.6118
 IR Inten    --     3.4866                 0.0000                 0.0000

                    25                     26                     27
                    BU                     AG                     BU
 Frequencies --  1488.1445              1657.6633              1709.1121
 Red. masses --     1.2432                 3.7384                 4.1509
 Frc consts  --     1.6221                 6.0524                 7.1439
 IR Inten    --     2.0604                 0.0000                16.4496

                    28                     29                     30
                    AG                     BU                     AG
 Frequencies --  1712.0708              3143.4434              3144.4393
 Red. masses --     4.6127                 1.0848                 1.0899
 Frc consts  --     7.9661                 6.3158                 6.3492
 IR Inten    --     0.0000                 0.1239                 0.0000

                    31                     32                     33
                    AG                     BU                     BU
 Frequencies --  3151.8716              3157.7763              3165.1822
 Red. masses --     1.0850                 1.0846                 1.0653
 Frc consts  --     6.3504                 6.3721                 6.2880
 IR Inten    --     0.0000                63.1646                12.1608

                    34                     35                     36
                    AG                     AG                     BU
 Frequencies --  3165.4102              3248.6083              3248.6274
 Red. masses --     1.0660                 1.1156                 1.1156
 Frc consts  --     6.2930                 6.9367                 6.9368
 IR Inten    --     0.0000                 0.0000                31.7142

 - Thermochemistry -
 -------------------
 Temperature   298.150 Kelvin.  Pressure   1.00000 Atm.
 Atom     1 has atomic number  6 and mass  12.00000

 Molecular mass:    80.06260 amu.
 Principal axes and moments of inertia in atomic units:
                           1         2         3
     Eigenvalues --    67.712241356.120081423.83232
           X            0.43949   0.89825   0.00000
           Y            0.89825  -0.43949   0.00000
           Z            0.00000   0.00000   1.00000
 This molecule is an asymmetric top.
 Rotational symmetry number  2.
 Rotational temperatures (Kelvin)      1.27915     0.06387     0.06083
 Rotational constants (GHZ):          26.65310     1.33081     1.26752
 Zero-point vibrational energy     312891.7 (Joules/Mol)
                                   74.78291 (Kcal/Mol)
 Warning -- explicit consideration of   8 degrees of freedom as
           vibrations may cause significant error
 Vibrational temperatures:    144.61   212.07   326.81   367.69   505.07
          (Kelvin)            641.02   780.77   889.38  1022.64  1292.85
                             1324.07  1330.11  1372.61  1402.36  1420.26
                             1483.16  1531.46  1683.27  1773.01  1865.78
                             1910.89  1927.58  1933.66  2093.43  2141.11
                             2385.00  2459.03  2463.28  4522.71  4524.14
                             4534.83  4543.33  4553.99  4554.31  4674.02
                             4674.04

 Zero-point correction=                           0.119174 (Hartree/Particle)
 Thermal correction to Energy=                    0.125897
 Thermal correction to Enthalpy=                  0.126841
 Thermal correction to Gibbs Free Energy=         0.089721
 Sum of electronic and zero-point Energies=           -233.279373
 Sum of electronic and thermal Energies=              -233.272650
 Sum of electronic and thermal Enthalpies=            -233.271706
 Sum of electronic and thermal Free Energies=         -233.308826

                     E (Thermal)             CV                S
                      KCal/Mol        Cal/Mol-Kelvin    Cal/Mol-Kelvin
 Total                   79.001             23.829             78.125
 Electronic               0.000              0.000              0.000
 Translational            0.889              2.981             39.055
 Rotational               0.889              2.981             24.995
 Vibrational             77.224             17.868             14.075
 Vibration     1          0.604              1.949              3.444
 Vibration     2          0.617              1.905              2.706
 Vibration     3          0.651              1.800              1.901
 Vibration     4          0.666              1.753              1.692
 Vibration     5          0.728              1.573              1.162
 Vibration     6          0.805              1.371              0.809
 Vibration     7          0.898              1.156              0.560
 Vibration     8          0.978              0.994              0.419

 Optimization completed.
    -- Stationary point found.
 Normal termination of Gaussian 09 at Tue Mar  2 12:44:04 2021.
