 Gaussian 09, Revision C.01,
 Gaussian 09:  EM64L-G09RevC.01 23-Sep-2011

 -----------------------------------------
 # b3lyp/6-31g* geom=connectivity opt freq
 -----------------------------------------

 99/9=1/99;
 -------------------
 Title Card Required
 -------------------
 Charge =  0 Multiplicity = 1

 SCF Done:  E(RB3LYP) =  -233.376635293     A.U. after   14 cycles
 SCF Done:  E(RB3LYP) =  -233.391367082     A.U. after   13 cycles
 SCF Done:  E(RB3LYP) =  -233.392458761     A.U. after   12 cycles
 SCF Done:  E(RB3LYP) =  -233.392731975     A.U. after   11 cycles
 SCF Done:  E(RB3LYP) =  -233.392738014     A.U. after    8 cycles
 SCF Done:  E(RB3LYP) =  -233.392738472     A.U. after    8 cycles
 Optimization completed.
    -- Stationary point found.
 Normal termination of Gaussian 09 at Tue Mar  2 11:53:14 2021.

 --------------------------------------------------------------------
 #N Geom=AllCheck Guess=TCheck SCRF=Check GenChk RB3LYP/6-31G(d) Freq
 --------------------------------------------------------------------

 Structure from the checkpoint file:  hexa_1cis.chk
 -------------------
 Title Card Required
 -------------------
 Charge =  0 Multiplicity = 1

                         Standard orientation:
 ---------------------------------------------------------------------
 Center     Atomic      Atomic             Coordinates (Angstroms)
 Number     Number       Type             X           Y           Z
 ---------------------------------------------------------------------
      1          6           0        1.264503   -2.376989    0.000000
      2          1           0        1.595644   -3.410888    0.000000
      3          1           0        2.045472   -1.620877    0.000000
      4          6           0       -0.042267   -2.068345    0.000000
      5          1           0       -0.756483   -2.891205    0.000000
      6          6           0       -0.644134   -0.735482    0.000000
      7          1           0       -1.734122   -0.716082    0.000000
      8          6           0        0.000000    0.453082    0.000000
      9          1           0        1.089753    0.480901    0.000000
     10          6           0       -0.676430    1.735251    0.000000
     11          1           0       -1.766657    1.706535    0.000000
     12          6           0       -0.052144    2.924752    0.000000
     13          1           0       -0.603877    3.859690    0.000000
     14          1           0        1.033098    2.998304    0.000000
 ---------------------------------------------------------------------

 SCF Done:  E(RB3LYP) =  -233.392738472     A.U. after    1 cycles

 The electronic state is 1-A'.
 Alpha  occ. eigenvalues --  -10.19327 -10.19324 -10.19239 -10.19158 -10.18386
 Alpha  occ. eigenvalues --  -10.18348  -0.81537  -0.77358  -0.71375  -0.62773
 Alpha  occ. eigenvalues --   -0.56534  -0.53579  -0.48036  -0.46213  -0.42875
 Alpha  occ. eigenvalues --   -0.40807  -0.37490  -0.35405  -0.34625  -0.33612
 Alpha  occ. eigenvalues --   -0.28449  -0.20829
 Alpha virt. eigenvalues --   -0.04874   0.04407   0.09789   0.11308   0.11364
 Alpha virt. eigenvalues --    0.12660   0.14498   0.18289   0.18669   0.20239
 Alpha virt. eigenvalues --    0.21580   0.31020   0.32093   0.35132   0.38163

 Mulliken atomic charges:
              1
     1  C   -0.337924
     2  H    0.144784
     3  H    0.141494
     4  C   -0.076191
     5  H    0.127202
     6  C   -0.148799
     7  H    0.124669
     8  C   -0.096524
     9  H    0.124744
    10  C   -0.058846
    11  H    0.126958
    12  C   -0.357521
    13  H    0.144738
    14  H    0.141215
 Sum of Mulliken atomic charges =   0.00000

 Dipole moment (field-independent basis, Debye):
    X=             -0.0859    Y=             -0.0527    Z=              0.0000  Tot=              0.1008
 Quadrupole moment (field-independent basis, Debye-Ang):
   XX=            -33.0973   YY=            -33.4872   ZZ=            -40.7996
   XY=              0.1990   XZ=              0.0000   YZ=              0.0000

  Exact polarizability:  66.290  -8.263 131.430   0.000   0.000  22.290
 Approx polarizability: 103.651  -4.502 210.000   0.000   0.000  31.946

 ******    1 imaginary frequencies (negative Signs) ******

                     1                      2                      3
                    A"                     A'                     A"
 Frequencies --   -68.9777               153.4465               153.9709
 Red. masses --     1.5481                 3.0417                 2.8392
 Frc consts  --     0.0043                 0.0422                 0.0397
 IR Inten    --     0.0066                 0.5551                 0.6925

                     4                      5                      6
                    A"                     A'                     A'
 Frequencies --   263.0269               328.4723               470.5179
 Red. masses --     1.8602                 2.9725                 3.1248
 Frc consts  --     0.0758                 0.1890                 0.4076
 IR Inten    --     1.2838                 5.0484                 0.8666

                     7                      8                      9
                    A'                     A"                     A"
 Frequencies --   593.6784               608.4862               692.5546
 Red. masses --     2.5170                 1.2465                 1.6566
 Frc consts  --     0.5227                 0.2719                 0.4681
 IR Inten    --     4.1679                 0.3831                 8.9683

                    10                     11                     12
                    A"                     A"                     A"
 Frequencies --   894.7906               918.4372               921.4853
 Red. masses --     1.8750                 1.3889                 1.4379
 Frc consts  --     0.8845                 0.6903                 0.7194
 IR Inten    --     2.5728                53.6889                16.4379

                    13                     14                     15
                    A'                     A"                     A'
 Frequencies --   959.7735               990.1849              1000.6917
 Red. masses --     1.5539                 1.1407                 2.4038
 Frc consts  --     0.8433                 0.6590                 1.4182
 IR Inten    --     0.2487                 6.7485                 2.9908

                    16                     17                     18
                    A"                     A"                     A'
 Frequencies --  1037.9373              1055.8077              1091.6753
 Red. masses --     1.1140                 1.0928                 1.4411
 Frc consts  --     0.7071                 0.7178                 1.0119
 IR Inten    --    11.8773                33.5964                 1.0522

                    19                     20                     21
                    A'                     A'                     A'
 Frequencies --  1221.2004              1310.7698              1325.3063
 Red. masses --     2.1771                 1.3086                 1.4161
 Frc consts  --     1.9129                 1.3247                 1.4654
 IR Inten    --     8.7461                 2.8595                 1.5225

                    22                     23                     24
                    A'                     A'                     A'
 Frequencies --  1344.1867              1377.2507              1474.0128
 Red. masses --     1.3023                 1.3164                 1.2306
 Frc consts  --     1.3863                 1.4712                 1.5754
 IR Inten    --     2.2395                 0.5542                 4.7598

                    25                     26                     27
                    A'                     A'                     A'
 Frequencies --  1479.1817              1667.8062              1687.3231
 Red. masses --     1.2792                 4.7271                 3.5631
 Frc consts  --     1.6490                 7.7470                 5.9768
 IR Inten    --     0.6937                 9.6069                 5.2536

                    28                     29                     30
                    A'                     A'                     A'
 Frequencies --  1722.2116              3145.7438              3148.4414
 Red. masses --     4.1348                 1.0872                 1.0840
 Frc consts  --     7.2256                 6.3386                 6.3311
 IR Inten    --     0.7135                12.4603                 5.8391

                    31                     32                     33
                    A'                     A'                     A'
 Frequencies --  3159.3370              3164.8908              3165.8198
 Red. masses --     1.0829                 1.0812                 1.0666
 Frc consts  --     6.3687                 6.3807                 6.2986
 IR Inten    --    11.9389                57.8255                 3.4069

                    34                     35                     36
                    A'                     A'                     A'
 Frequencies --  3171.5385              3248.7757              3249.0786
 Red. masses --     1.0713                 1.1158                 1.1157
 Frc consts  --     6.3488                 6.9386                 6.9392
 IR Inten    --     4.1135                18.5737                11.8292

 - Thermochemistry -
 -------------------
 Temperature   298.150 Kelvin.  Pressure   1.00000 Atm.
 Atom     1 has atomic number  6 and mass  12.00000

 Molecular mass:    80.06260 amu.
 Principal axes and moments of inertia in atomic units:
                           1         2         3
     Eigenvalues --   129.022001168.369531297.39154
           X           -0.18300   0.98311   0.00000
           Y            0.98311   0.18300   0.00000
           Z            0.00000   0.00000   1.00000
 This molecule is an asymmetric top.
 Rotational symmetry number  1.
 Rotational temperatures (Kelvin)      0.67131     0.07413     0.06676
 Rotational constants (GHZ):          13.98786     1.54467     1.39105
    1 imaginary frequencies ignored.
 Zero-point vibrational energy     312212.2 (Joules/Mol)
                                   74.62052 (Kcal/Mol)
 Warning -- explicit consideration of   7 degrees of freedom as
           vibrations may cause significant error
 Vibrational temperatures:    220.78   221.53   378.44   472.60   676.97
          (Kelvin)            854.17   875.47   996.43  1287.40  1321.42
                             1325.81  1380.90  1424.65  1439.77  1493.36
                             1519.07  1570.68  1757.03  1885.90  1906.82
                             1933.98  1981.55  2120.77  2128.21  2399.60
                             2427.68  2477.88  4526.02  4529.90  4545.58
                             4553.57  4554.90  4563.13  4674.26  4674.69

 Zero-point correction=                           0.118915 (Hartree/Particle)
 Thermal correction to Energy=                    0.124989
 Thermal correction to Enthalpy=                  0.125933
 Thermal correction to Gibbs Free Energy=         0.089334
 Sum of electronic and zero-point Energies=           -233.273823
 Sum of electronic and thermal Energies=              -233.267750
 Sum of electronic and thermal Enthalpies=            -233.266805
 Sum of electronic and thermal Free Energies=         -233.303404

                     E (Thermal)             CV                S
                      KCal/Mol        Cal/Mol-Kelvin    Cal/Mol-Kelvin
 Total                   78.432             21.912             77.028
 Electronic               0.000              0.000              0.000
 Translational            0.889              2.981             39.055
 Rotational               0.889              2.981             26.772
 Vibrational             76.654             15.950             11.201
 Vibration     1          0.619              1.899              2.629
 Vibration     2          0.619              1.898              2.623
 Vibration     3          0.670              1.741              1.642
 Vibration     4          0.712              1.619              1.268
 Vibration     5          0.828              1.315              0.736
 Vibration     6          0.951              1.045              0.461
 Vibration     7          0.967              1.014              0.435

 Optimization completed.
    -- Stationary point found.
 Normal termination of Gaussian 09 at Tue Mar  2 11:54:09 2021.
