 Gaussian 09, Revision C.01,
 Gaussian 09:  EM64L-G09RevC.01 23-Sep-2011

 -----------------------------------------
 # b3lyp/6-31g* geom=connectivity opt freq
 -----------------------------------------

 99/9=1/99;
 -------------------
 Title Card Required
 -------------------
 Charge =  0 Multiplicity = 1

 SCF Done:  E(RB3LYP) =  -310.763860932     A.U. after   13 cycles
 SCF Done:  E(RB3LYP) =  -310.779764192     A.U. after   14 cycles
 SCF Done:  E(RB3LYP) =  -310.785473279     A.U. after   13 cycles
 SCF Done:  E(RB3LYP) =  -310.787776788     A.U. after   13 cycles
 SCF Done:  E(RB3LYP) =  -310.788282226     A.U. after   12 cycles
 SCF Done:  E(RB3LYP) =  -310.788457892     A.U. after   11 cycles
 SCF Done:  E(RB3LYP) =  -310.788508130     A.U. after   11 cycles
 SCF Done:  E(RB3LYP) =  -310.788530449     A.U. after   10 cycles
 SCF Done:  E(RB3LYP) =  -310.788541532     A.U. after   10 cycles
 SCF Done:  E(RB3LYP) =  -310.788542265     A.U. after    9 cycles
 SCF Done:  E(RB3LYP) =  -310.788542410     A.U. after    8 cycles
 Optimization completed.
    -- Stationary point found.
 Normal termination of Gaussian 09 at Tue Mar  2 15:05:51 2021.

 --------------------------------------------------------------------
 #N Geom=AllCheck Guess=TCheck SCRF=Check GenChk RB3LYP/6-31G(d) Freq
 --------------------------------------------------------------------

 Structure from the checkpoint file:  octa_1g.chk,2,3g-cis.chk
 -------------------
 Title Card Required
 -------------------
 Charge =  0 Multiplicity = 1

                         Standard orientation:
 ---------------------------------------------------------------------
 Center     Atomic      Atomic             Coordinates (Angstroms)
 Number     Number       Type             X           Y           Z
 ---------------------------------------------------------------------
      1          6           0       -0.084309   -3.796688    0.370928
      2          1           0        0.078054   -4.868486    0.306597
      3          1           0       -0.744902   -3.451048    1.161995
      4          6           0        0.494734   -2.950428   -0.495955
      5          1           0        1.100160   -3.372219   -1.298713
      6          6           0        0.384406   -1.493553   -0.495917
      7          1           0        0.600401   -1.002119   -1.444057
      8          6           0        0.084309   -0.722195    0.575690
      9          1           0       -0.013817   -1.209130    1.545702
     10          6           0       -0.084309    0.722195    0.575690
     11          1           0        0.013817    1.209130    1.545702
     12          6           0       -0.384406    1.493553   -0.495917
     13          1           0       -0.600401    1.002119   -1.444057
     14          6           0       -0.494734    2.950428   -0.495955
     15          1           0       -1.100160    3.372219   -1.298713
     16          6           0        0.084309    3.796688    0.370928
     17          1           0       -0.078054    4.868486    0.306597
     18          1           0        0.744902    3.451048    1.161995
 ---------------------------------------------------------------------

 SCF Done:  E(RB3LYP) =  -310.788542410     A.U. after    1 cycles

 The electronic state is 1-A.
 Alpha  occ. eigenvalues --  -10.19293 -10.19293 -10.19197 -10.19175 -10.19112
 Alpha  occ. eigenvalues --  -10.19099 -10.18333 -10.18333  -0.82059  -0.79336
 Alpha  occ. eigenvalues --   -0.75214  -0.69989  -0.64226  -0.59219  -0.54894
 Alpha  occ. eigenvalues --   -0.50577  -0.49862  -0.46305  -0.45163  -0.41859
 Alpha  occ. eigenvalues --   -0.41823  -0.37412  -0.36347  -0.35364  -0.34453
 Alpha  occ. eigenvalues --   -0.32898  -0.30174  -0.25691  -0.20002
 Alpha virt. eigenvalues --   -0.06068   0.00914   0.07340   0.09662   0.11427
 Alpha virt. eigenvalues --    0.11880   0.11953   0.13122   0.15798   0.16798
 Alpha virt. eigenvalues --    0.18673   0.20058   0.20615   0.23348   0.30066

 Mulliken atomic charges:
              1
     1  C   -0.335290
     2  H    0.143498
     3  H    0.142941
     4  C   -0.082021
     5  H    0.129013
     6  C   -0.128344
     7  H    0.129205
     8  C   -0.127147
     9  H    0.128145
    10  C   -0.127147
    11  H    0.128145
    12  C   -0.128344
    13  H    0.129205
    14  C   -0.082021
    15  H    0.129013
    16  C   -0.335290
    17  H    0.143498
    18  H    0.142941
 Sum of Mulliken atomic charges =   0.00000

 Dipole moment (field-independent basis, Debye):
    X=              0.0000    Y=              0.0000    Z=             -0.0876  Tot=              0.0876
 Quadrupole moment (field-independent basis, Debye-Ang):
   XX=            -51.3427   YY=            -44.4751   ZZ=            -45.3677
   XY=             -0.8944   XZ=              0.0000   YZ=              0.0000

  Exact polarizability:  42.512  -5.406 202.314   0.000   0.000  72.570
 Approx polarizability:  64.448  -5.455 298.068   0.000   0.000 120.264

                     1                      2                      3
                     A                      B                      A
 Frequencies --    53.5073                67.0787               118.0435
 Red. masses --     2.7279                 3.7920                 2.7245
 Frc consts  --     0.0046                 0.0101                 0.0224
 IR Inten    --     0.0027                 0.0747                 0.0290

                     4                      5                      6
                     B                      A                      A
 Frequencies --   194.7947               202.0168               230.3143
 Red. masses --     1.5924                 2.9172                 1.9247
 Frc consts  --     0.0356                 0.0701                 0.0602
 IR Inten    --     1.8216                 0.0037                 0.3909

                     7                      8                      9
                     B                      A                      B
 Frequencies --   248.1686               334.8775               473.1540
 Red. masses --     3.0758                 2.5642                 2.8372
 Frc consts  --     0.1116                 0.1694                 0.3742
 IR Inten    --     0.6527                 0.9532                30.8324

                    10                     11                     12
                     A                      B                      A
 Frequencies --   560.2040               628.3871               651.0363
 Red. masses --     2.6245                 1.5379                 1.6816
 Frc consts  --     0.4853                 0.3578                 0.4199
 IR Inten    --     0.0562                 7.7294                 4.6781

                    13                     14                     15
                     B                      B                      A
 Frequencies --   717.1240               851.3678               905.1847
 Red. masses --     2.7752                 1.8949                 1.9735
 Frc consts  --     0.8409                 0.8092                 0.9527
 IR Inten    --     0.0918                 4.2439                 1.8451

                    16                     17                     18
                     A                      B                      A
 Frequencies --   922.9237               923.0306               962.7801
 Red. masses --     1.4004                 1.3894                 2.4565
 Frc consts  --     0.7028                 0.6974                 1.3416
 IR Inten    --    22.8107                47.2053                 0.0367

                    19                     20                     21
                     B                      A                      B
 Frequencies --  1003.7545              1009.9242              1018.3902
 Red. masses --     1.2163                 1.2293                 1.5013
 Frc consts  --     0.7220                 0.7387                 0.9174
 IR Inten    --    35.6945                 1.9646                26.6082

                    22                     23                     24
                     A                      A                      B
 Frequencies --  1031.3210              1036.6890              1037.7938
 Red. masses --     1.2285                 1.4537                 1.3703
 Frc consts  --     0.7698                 0.9205                 0.8695
 IR Inten    --     7.3475                 1.6315                 7.2811

                    25                     26                     27
                     B                      A                      B
 Frequencies --  1087.6254              1150.5604              1314.4649
 Red. masses --     1.4417                 1.5984                 1.3490
 Frc consts  --     1.0048                 1.2467                 1.3733
 IR Inten    --    13.5301                 0.9596                 0.9810

                    28                     29                     30
                     A                      A                      B
 Frequencies --  1331.5658              1342.8826              1354.9017
 Red. masses --     1.2702                 1.7093                 1.2438
 Frc consts  --     1.3269                 1.8161                 1.3453
 IR Inten    --     0.3884                 1.4244                 0.1967

                    31                     32                     33
                     B                      A                      A
 Frequencies --  1369.9437              1376.8033              1473.2743
 Red. masses --     1.4004                 1.3641                 1.2414
 Frc consts  --     1.5485                 1.5235                 1.5875
 IR Inten    --    11.8252                 0.3953                 4.2416

                    34                     35                     36
                     B                      A                      B
 Frequencies --  1474.9877              1641.3476              1683.6807
 Red. masses --     1.2505                 4.9519                 4.5192
 Frc consts  --     1.6030                 7.8600                 7.5480
 IR Inten    --     2.1500                 0.3603                 7.4244

                    37                     38                     39
                     A                      B                      B
 Frequencies --  1704.6139              1712.0425              3143.7442
 Red. masses --     3.8109                 3.7982                 1.0865
 Frc consts  --     6.5242                 6.5594                 6.3269
 IR Inten    --     1.3693                 1.4107                15.8424

                    40                     41                     42
                     A                      B                      A
 Frequencies --  3146.8049              3150.3270              3162.6115
 Red. masses --     1.0847                 1.0839                 1.0800
 Frc consts  --     6.3286                 6.3378                 6.3647
 IR Inten    --     9.3312                53.1644                 0.7401

                    43                     44                     45
                     B                      A                      B
 Frequencies --  3162.6780              3168.4548              3169.1064
 Red. masses --     1.0814                 1.0815                 1.0694
 Frc consts  --     6.3731                 6.3969                 6.3277
 IR Inten    --    21.3916                51.0761                 8.2299

                    46                     47                     48
                     A                      B                      A
 Frequencies --  3170.4921              3248.1925              3248.2516
 Red. masses --     1.0779                 1.1163                 1.1163
 Frc consts  --     6.3839                 6.9392                 6.9393
 IR Inten    --     4.0823                27.7731                 5.7408

 - Thermochemistry -
 -------------------
 Temperature   298.150 Kelvin.  Pressure   1.00000 Atm.
 Atom     1 has atomic number  6 and mass  12.00000

 Molecular mass:   106.07825 amu.
 Principal axes and moments of inertia in atomic units:
                           1         2         3
     Eigenvalues --   176.258992623.533942721.45354
           X           -0.06585   0.00000   0.99783
           Y            0.99783   0.00000   0.06585
           Z            0.00000   1.00000   0.00000
 This molecule is an asymmetric top.
 Rotational symmetry number  2.
 Rotational temperatures (Kelvin)      0.49140     0.03301     0.03183
 Rotational constants (GHZ):          10.23914     0.68790     0.66315
 Zero-point vibrational energy     400576.9 (Joules/Mol)
                                   95.74017 (Kcal/Mol)
 Warning -- explicit consideration of  10 degrees of freedom as
           vibrations may cause significant error
 Vibrational temperatures:     76.98    96.51   169.84   280.27   290.66
          (Kelvin)            331.37   357.06   481.81   680.76   806.01
                              904.11   936.69  1031.78  1224.93  1302.36
                             1327.88  1328.03  1385.22  1444.18  1453.05
                             1465.23  1483.84  1491.56  1493.15  1564.85
                             1655.40  1891.22  1915.82  1932.11  1949.40
                             1971.04  1980.91  2119.71  2122.18  2361.53
                             2422.44  2452.56  2463.24  4523.14  4527.54
                             4532.61  4550.29  4550.38  4558.69  4559.63
                             4561.63  4673.42  4673.50

 Zero-point correction=                           0.152572 (Hartree/Particle)
 Thermal correction to Energy=                    0.161637
 Thermal correction to Enthalpy=                  0.162581
 Thermal correction to Gibbs Free Energy=         0.118805
 Sum of electronic and zero-point Energies=           -310.635971
 Sum of electronic and thermal Energies=              -310.626905
 Sum of electronic and thermal Enthalpies=            -310.625961
 Sum of electronic and thermal Free Energies=         -310.669738

                     E (Thermal)             CV                S
                      KCal/Mol        Cal/Mol-Kelvin    Cal/Mol-Kelvin
 Total                  101.429             31.962             92.136
 Electronic               0.000              0.000              0.000
 Translational            0.889              2.981             39.894
 Rotational               0.889              2.981             27.245
 Vibrational             99.651             26.000             24.998
 Vibration     1          0.596              1.976              4.683
 Vibration     2          0.598              1.970              4.237
 Vibration     3          0.608              1.934              3.132
 Vibration     4          0.635              1.847              2.182
 Vibration     5          0.639              1.837              2.115
 Vibration     6          0.652              1.795              1.876
 Vibration     7          0.662              1.766              1.744
 Vibration     8          0.716              1.606              1.236
 Vibration     9          0.830              1.310              0.729
 Vibration    10          0.916              1.117              0.523

 Optimization completed.
    -- Stationary point found.
 Normal termination of Gaussian 09 at Tue Mar  2 15:07:57 2021.
