 Gaussian 09, Revision C.01,
 Gaussian 09:  EM64L-G09RevC.01 23-Sep-2011

 --------------------------------------------------
 # b3lyp/6-31g* geom=connectivity opt freq pop=full
 --------------------------------------------------

 99/9=1/99;
 -------------------
 Title Card Required
 -------------------
 Charge =  0 Multiplicity = 1

 SCF Done:  E(RB3LYP) =  -310.786726054     A.U. after   14 cycles
 SCF Done:  E(RB3LYP) =  -310.804361713     A.U. after   15 cycles
 SCF Done:  E(RB3LYP) =  -310.805663407     A.U. after   11 cycles
 SCF Done:  E(RB3LYP) =  -310.805683604     A.U. after    8 cycles
 SCF Done:  E(RB3LYP) =  -310.805684478     A.U. after    7 cycles
 Optimization completed.
    -- Stationary point found.
 Normal termination of Gaussian 09 at Tue Mar  2 12:53:25 2021.

 --------------------------------------------------------------------
 #N Geom=AllCheck Guess=TCheck SCRF=Check GenChk RB3LYP/6-31G(d) Freq
 --------------------------------------------------------------------

 Structure from the checkpoint file:  octa.chk
 -------------------
 Title Card Required
 -------------------
 Charge =  0 Multiplicity = 1

                         Standard orientation:
 ---------------------------------------------------------------------
 Center     Atomic      Atomic             Coordinates (Angstroms)
 Number     Number       Type             X           Y           Z
 ---------------------------------------------------------------------
      1          6           0        0.136003    4.312449    0.000000
      2          1           0        0.769532    5.193947    0.000000
      3          1           0       -0.938341    4.482566    0.000000
      4          6           0        0.651135    3.071012    0.000000
      5          1           0        1.734549    2.945832    0.000000
      6          6           0       -0.136003    1.855941    0.000000
      7          1           0       -1.220626    1.972880    0.000000
      8          6           0        0.389410    0.606190    0.000000
      9          1           0        1.474733    0.493967    0.000000
     10          6           0       -0.389410   -0.606190    0.000000
     11          1           0       -1.474733   -0.493967    0.000000
     12          6           0        0.136003   -1.855941    0.000000
     13          1           0        1.220626   -1.972880    0.000000
     14          6           0       -0.651135   -3.071012    0.000000
     15          1           0       -1.734549   -2.945832    0.000000
     16          6           0       -0.136003   -4.312449    0.000000
     17          1           0       -0.769532   -5.193947    0.000000
     18          1           0        0.938341   -4.482566    0.000000
 ---------------------------------------------------------------------

 SCF Done:  E(RB3LYP) =  -310.805684478     A.U. after    1 cycles

 The electronic state is 1-AG.
 Alpha  occ. eigenvalues --  -10.19395 -10.19364 -10.19345 -10.19342 -10.19265
 Alpha  occ. eigenvalues --  -10.19260 -10.18411 -10.18411  -0.82350  -0.79761
 Alpha  occ. eigenvalues --   -0.75851  -0.70973  -0.62900  -0.57005  -0.56144
 Alpha  occ. eigenvalues --   -0.54705  -0.48107  -0.47083  -0.44543  -0.42106
 Alpha  occ. eigenvalues --   -0.39863  -0.38371  -0.36941  -0.35387  -0.34539
 Alpha  occ. eigenvalues --   -0.34510  -0.31265  -0.26197  -0.19702
 Alpha virt. eigenvalues --   -0.05768   0.01875   0.07948   0.09362   0.10724
 Alpha virt. eigenvalues --    0.12369   0.12642   0.12791   0.15295   0.15555
 Alpha virt. eigenvalues --    0.17107   0.19312   0.19919   0.20191   0.28699

 Mulliken atomic charges:
              1
     1  C   -0.355954
     2  H    0.144719
     3  H    0.141204
     4  C   -0.060049
     5  H    0.126492
     6  C   -0.122382
     7  H    0.123951
     8  C   -0.122524
     9  H    0.124543
    10  C   -0.122524
    11  H    0.124543
    12  C   -0.122382
    13  H    0.123951
    14  C   -0.060049
    15  H    0.126492
    16  C   -0.355954
    17  H    0.144719
    18  H    0.141204
 Sum of Mulliken atomic charges =   0.00000

 Dipole moment (field-independent basis, Debye):
    X=              0.0000    Y=              0.0000    Z=              0.0000  Tot=              0.0000
 Quadrupole moment (field-independent basis, Debye-Ang):
   XX=            -43.6664   YY=            -44.7212   ZZ=            -53.7204
   XY=             -0.0023   XZ=              0.0000   YZ=              0.0000

  Exact polarizability:  73.085  -4.426 268.134   0.000   0.000  29.199
 Approx polarizability: 107.914 -30.975 450.961   0.000   0.000  42.651

                     1                      2                      3
                    AU                     BU                     BG
 Frequencies --    62.6580                87.3808               157.8422
 Red. masses --     4.0148                 3.5850                 3.3828
 Frc consts  --     0.0093                 0.0161                 0.0497
 IR Inten    --     0.1658                 1.4471                 0.0000

                     4                      5                      6
                    AU                     AG                     AU
 Frequencies --   179.2791               222.8685               261.3813
 Red. masses --     1.6898                 3.0257                 2.6588
 Frc consts  --     0.0320                 0.0885                 0.1070
 IR Inten    --     0.4343                 0.0000                 0.4069

                     7                      8                      9
                    AG                     BG                     BU
 Frequencies --   342.2517               353.6891               390.5763
 Red. masses --     4.9104                 1.9309                 2.6124
 Frc consts  --     0.3389                 0.1423                 0.2348
 IR Inten    --     0.0000                 0.0000                 6.3046

                    10                     11                     12
                    AG                     BU                     AU
 Frequencies --   542.0146               573.1612               646.5742
 Red. masses --     2.6369                 3.5156                 1.2458
 Frc consts  --     0.4564                 0.6805                 0.3069
 IR Inten    --     0.0000                 6.2469                 7.2996

                    13                     14                     15
                    BG                     AU                     BG
 Frequencies --   683.0830               873.8974               909.7416
 Red. masses --     1.5339                 1.7235                 1.5972
 Frc consts  --     0.4217                 0.7755                 0.7788
 IR Inten    --     0.0000                 3.8461                 0.0000

                    16                     17                     18
                    AU                     BG                     BU
 Frequencies --   918.0654               922.4711               959.5632
 Red. masses --     1.3986                 1.7362                 1.5741
 Frc consts  --     0.6945                 0.8705                 0.8540
 IR Inten    --    74.7854                 0.0000                 1.2870

                    19                     20                     21
                    BG                     AG                     AU
 Frequencies --   961.1312               979.7071              1002.1554
 Red. masses --     1.1647                 1.4330                 1.1204
 Frc consts  --     0.6339                 0.8104                 0.6629
 IR Inten    --     0.0000                 0.0000                 2.7106

                    22                     23                     24
                    BG                     AU                     BU
 Frequencies --  1044.5917              1065.1729              1176.1886
 Red. masses --     1.0978                 1.0901                 1.7467
 Frc consts  --     0.7058                 0.7287                 1.4237
 IR Inten    --     0.0000                75.6607                15.0432

                    25                     26                     27
                    AG                     AG                     BU
 Frequencies --  1181.5209              1226.9135              1273.3357
 Red. masses --     3.5864                 1.8307                 1.3245
 Frc consts  --     2.9498                 1.6236                 1.2653
 IR Inten    --     0.0000                 0.0000                 8.7541

                    28                     29                     30
                    AG                     BU                     AG
 Frequencies --  1322.9373              1329.9719              1334.8395
 Red. masses --     1.4147                 1.3732                 1.6254
 Frc consts  --     1.4588                 1.4311                 1.7063
 IR Inten    --     0.0000                 5.6728                 0.0000

                    31                     32                     33
                    BU                     AG                     BU
 Frequencies --  1346.7472              1353.4138              1463.0173
 Red. masses --     1.3029                 1.3225                 1.2903
 Frc consts  --     1.3923                 1.4273                 1.6272
 IR Inten    --     0.6250                 0.0000                 1.0390

                    34                     35                     36
                    AG                     BU                     AG
 Frequencies --  1484.5219              1642.1690              1687.4988
 Red. masses --     1.2758                 3.9539                 4.5647
 Frc consts  --     1.6566                 6.2821                 7.6586
 IR Inten    --     0.0000                 6.1647                 0.0000

                    37                     38                     39
                    AG                     BU                     AG
 Frequencies --  1691.4414              1714.7620              3141.8796
 Red. masses --     3.8883                 4.5197                 1.0874
 Frc consts  --     6.5543                 7.8301                 6.3243
 IR Inten    --     0.0000                15.1158                 0.0000

                    40                     41                     42
                    BU                     AG                     BU
 Frequencies --  3143.7830              3146.1949              3148.5420
 Red. masses --     1.0886                 1.0879                 1.0870
 Frc consts  --     6.3390                 6.3448                 6.3487
 IR Inten    --     3.2149                 0.0000                 0.4177

                    43                     44                     45
                    AG                     BU                     BU
 Frequencies --  3155.0662              3158.4261              3165.7815
 Red. masses --     1.0859                 1.0852                 1.0645
 Frc consts  --     6.3686                 6.3785                 6.2856
 IR Inten    --     0.0000                96.9830                15.9010

                    46                     47                     48
                    AG                     AG                     BU
 Frequencies --  3165.8397              3249.3502              3249.3611
 Red. masses --     1.0649                 1.1157                 1.1157
 Frc consts  --     6.2886                 6.9405                 6.9407
 IR Inten    --     0.0000                 0.0000                31.5617

 - Thermochemistry -
 -------------------
 Temperature   298.150 Kelvin.  Pressure   1.00000 Atm.
 Atom     1 has atomic number  6 and mass  12.00000

 Molecular mass:   106.07825 amu.
 Principal axes and moments of inertia in atomic units:
                           1         2         3
     Eigenvalues --    91.825813179.256303271.08211
           X            0.07909   0.99687   0.00000
           Y            0.99687  -0.07909   0.00000
           Z            0.00000   0.00000   1.00000
 This molecule is an asymmetric top.
 Rotational symmetry number  2.
 Rotational temperatures (Kelvin)      0.94324     0.02724     0.02648
 Rotational constants (GHZ):          19.65396     0.56766     0.55173
 Zero-point vibrational energy     401303.8 (Joules/Mol)
                                   95.91392 (Kcal/Mol)
 Warning -- explicit consideration of  11 degrees of freedom as
           vibrations may cause significant error
 Vibrational temperatures:     90.15   125.72   227.10   257.94   320.66
          (Kelvin)            376.07   492.42   508.88   561.95   779.84
                              824.65   930.27   982.80  1257.34  1308.91
                             1320.89  1327.23  1380.60  1382.85  1409.58
                             1441.88  1502.93  1532.54  1692.27  1699.94
                             1765.25  1832.04  1903.41  1913.53  1920.53
                             1937.67  1947.26  2104.95  2135.89  2362.71
                             2427.93  2433.60  2467.16  4520.46  4523.20
                             4526.67  4530.04  4539.43  4544.27  4554.85
                             4554.93  4675.08  4675.10

 Zero-point correction=                           0.152849 (Hartree/Particle)
 Thermal correction to Energy=                    0.161706
 Thermal correction to Enthalpy=                  0.162650
 Thermal correction to Gibbs Free Energy=         0.119890
 Sum of electronic and zero-point Energies=           -310.652836
 Sum of electronic and thermal Energies=              -310.643978
 Sum of electronic and thermal Enthalpies=            -310.643034
 Sum of electronic and thermal Free Energies=         -310.685795

                     E (Thermal)             CV                S
                      KCal/Mol        Cal/Mol-Kelvin    Cal/Mol-Kelvin
 Total                  101.472             31.890             89.998
 Electronic               0.000              0.000              0.000
 Translational            0.889              2.981             39.894
 Rotational               0.889              2.981             26.970
 Vibrational             99.695             25.928             23.134
 Vibration     1          0.597              1.972              4.372
 Vibration     2          0.601              1.958              3.718
 Vibration     3          0.621              1.894              2.575
 Vibration     4          0.629              1.868              2.336
 Vibration     5          0.649              1.806              1.936
 Vibration     6          0.669              1.743              1.653
 Vibration     7          0.721              1.591              1.202
 Vibration     8          0.730              1.568              1.150
 Vibration     9          0.758              1.490              0.998
 Vibration    10          0.897              1.157              0.561
 Vibration    11          0.929              1.089              0.498

 Optimization completed.
    -- Stationary point found.
 Normal termination of Gaussian 09 at Tue Mar  2 12:54:41 2021.
