 Gaussian 09, Revision C.01,
 Gaussian 09:  EM64L-G09RevC.01 23-Sep-2011

 -----------------------------------------
 # b3lyp/6-31g* geom=connectivity opt freq
 -----------------------------------------

 99/9=1/99;
 -------------------
 Title Card Required
 -------------------
 Charge =  0 Multiplicity = 1

 SCF Done:  E(RB3LYP) =  -310.778842879     A.U. after   14 cycles
 SCF Done:  E(RB3LYP) =  -310.797401844     A.U. after   14 cycles
 SCF Done:  E(RB3LYP) =  -310.799460334     A.U. after   13 cycles
 SCF Done:  E(RB3LYP) =  -310.799899279     A.U. after   11 cycles
 SCF Done:  E(RB3LYP) =  -310.799909170     A.U. after    8 cycles
 SCF Done:  E(RB3LYP) =  -310.799909911     A.U. after    8 cycles
 Optimization completed.
    -- Stationary point found.
 Normal termination of Gaussian 09 at Tue Mar  2 14:27:31 2021.

 --------------------------------------------------------------------
 #N Geom=AllCheck Guess=TCheck SCRF=Check GenChk RB3LYP/6-31G(d) Freq
 --------------------------------------------------------------------

 Structure from the checkpoint file:  octa_1-cis.chk
 -------------------
 Title Card Required
 -------------------
 Charge =  0 Multiplicity = 1

                         Standard orientation:
 ---------------------------------------------------------------------
 Center     Atomic      Atomic             Coordinates (Angstroms)
 Number     Number       Type             X           Y           Z
 ---------------------------------------------------------------------
      1          6           0       -0.904704   -3.718478    0.000000
      2          1           0       -1.105287   -4.785363    0.000000
      3          1           0       -1.773282   -3.064836    0.000000
      4          6           0        0.354972   -3.250572    0.000000
      5          1           0        1.164598   -3.979783    0.000000
      6          6           0        0.788551   -1.856564    0.000000
      7          1           0        1.867589   -1.702295    0.000000
      8          6           0        0.000000   -0.754160    0.000000
      9          1           0       -1.084249   -0.867316    0.000000
     10          6           0        0.504432    0.595000    0.000000
     11          1           0        1.589008    0.714659    0.000000
     12          6           0       -0.273931    1.705501    0.000000
     13          1           0       -1.358679    1.590397    0.000000
     14          6           0        0.238503    3.059360    0.000000
     15          1           0        1.323871    3.166040    0.000000
     16          6           0       -0.527211    4.164110    0.000000
     17          1           0       -0.093981    5.159462    0.000000
     18          1           0       -1.613256    4.103857    0.000000
 ---------------------------------------------------------------------

 SCF Done:  E(RB3LYP) =  -310.799909911     A.U. after    1 cycles

 The electronic state is 1-A'.
 Alpha  occ. eigenvalues --  -10.19384 -10.19342 -10.19336 -10.19312 -10.19255
 Alpha  occ. eigenvalues --  -10.19224 -10.18408 -10.18352  -0.82280  -0.79598
 Alpha  occ. eigenvalues --   -0.75651  -0.70707  -0.63455  -0.58191  -0.55822
 Alpha  occ. eigenvalues --   -0.52918  -0.48869  -0.46689  -0.44300  -0.42998
 Alpha  occ. eigenvalues --   -0.39642  -0.38563  -0.35986  -0.35371  -0.34575
 Alpha  occ. eigenvalues --   -0.34461  -0.31129  -0.26105  -0.19630
 Alpha virt. eigenvalues --   -0.06053   0.01378   0.08200   0.09216   0.11040
 Alpha virt. eigenvalues --    0.11598   0.12453   0.12746   0.15623   0.16103
 Alpha virt. eigenvalues --    0.18564   0.19689   0.20367   0.20901   0.29343

 Mulliken atomic charges:
              1
     1  C   -0.338880
     2  H    0.144816
     3  H    0.141201
     4  C   -0.076522
     5  H    0.127139
     6  C   -0.149849
     7  H    0.124376
     8  C   -0.097111
     9  H    0.125199
    10  C   -0.120959
    11  H    0.124682
    12  C   -0.124877
    13  H    0.124077
    14  C   -0.059810
    15  H    0.126440
    16  C   -0.355843
    17  H    0.144685
    18  H    0.141238
 Sum of Mulliken atomic charges =   0.00000

 Dipole moment (field-independent basis, Debye):
    X=              0.0989    Y=             -0.0318    Z=              0.0000  Tot=              0.1039
 Quadrupole moment (field-independent basis, Debye-Ang):
   XX=            -43.5936   YY=            -44.3853   ZZ=            -53.6918
   XY=             -0.2000   XZ=              0.0000   YZ=              0.0000

  Exact polarizability:  84.029 -10.893 238.272   0.000   0.000  29.113
 Approx polarizability: 137.561 -36.660 386.798   0.000   0.000  42.475

 ******    1 imaginary frequencies (negative Signs) ******

                     1                      2                      3
                    A"                     A"                     A'
 Frequencies --   -42.3100                81.9305                90.6233
 Red. masses --     1.6391                 3.4065                 3.5770
 Frc consts  --     0.0017                 0.0135                 0.0173
 IR Inten    --     0.0145                 0.3580                 0.8777

                     4                      5                      6
                    A"                     A'                     A"
 Frequencies --   175.7618               218.1835               248.7796
 Red. masses --     2.2670                 3.3217                 2.1014
 Frc consts  --     0.0413                 0.0932                 0.0766
 IR Inten    --     0.3028                 1.9773                 0.5540

                     7                      8                      9
                    A'                     A"                     A'
 Frequencies --   327.7868               334.4868               434.2722
 Red. masses --     3.5872                 2.1483                 3.4643
 Frc consts  --     0.2271                 0.1416                 0.3849
 IR Inten    --     0.0383                 0.1482                 2.3961

                    10                     11                     12
                    A'                     A"                     A'
 Frequencies --   515.6779               634.3910               634.9320
 Red. masses --     2.8159                 1.3687                 2.6582
 Frc consts  --     0.4412                 0.3245                 0.6314
 IR Inten    --    12.2957                 9.4066                 1.9113

                    13                     14                     15
                    A"                     A"                     A"
 Frequencies --   672.2026               864.5813               910.1178
 Red. masses --     1.5206                 1.7444                 1.6420
 Frc consts  --     0.4048                 0.7683                 0.8014
 IR Inten    --     0.2581                 1.0064                 2.9905

                    16                     17                     18
                    A"                     A"                     A'
 Frequencies --   914.8852               921.2539               962.6238
 Red. masses --     1.4414                 1.6628                 1.6921
 Frc consts  --     0.7109                 0.8315                 0.9238
 IR Inten    --    52.9879                17.4171                 1.4728

                    19                     20                     21
                    A"                     A'                     A"
 Frequencies --   966.2285              1005.1541              1019.2300
 Red. masses --     1.1441                 2.1873                 1.0998
 Frc consts  --     0.6293                 1.3020                 0.6732
 IR Inten    --     0.0000                 0.3185                 9.4682

                    22                     23                     24
                    A"                     A"                     A'
 Frequencies --  1037.1174              1059.7899              1077.4979
 Red. masses --     1.1166                 1.0904                 1.5475
 Frc consts  --     0.7077                 0.7216                 1.0586
 IR Inten    --    10.5399                56.2792                 6.6710

                    25                     26                     27
                    A'                     A'                     A'
 Frequencies --  1189.6779              1220.9459              1273.9420
 Red. masses --     2.0606                 2.1463                 1.2942
 Frc consts  --     1.7183                 1.8851                 1.2376
 IR Inten    --     3.2558                 7.1923                 0.0151

                    28                     29                     30
                    A'                     A'                     A'
 Frequencies --  1323.5607              1330.7906              1342.8275
 Red. masses --     1.5807                 1.3508                 1.3591
 Frc consts  --     1.6315                 1.4095                 1.4439
 IR Inten    --     7.6640                 2.4816                 0.3292

                    31                     32                     33
                    A'                     A'                     A'
 Frequencies --  1364.6539              1378.1503              1474.7766
 Red. masses --     1.3558                 1.3524                 1.2438
 Frc consts  --     1.4876                 1.5134                 1.5939
 IR Inten    --     3.3716                 1.7044                 0.5652

                    34                     35                     36
                    A'                     A'                     A'
 Frequencies --  1478.8871              1649.9239              1666.5569
 Red. masses --     1.2956                 4.3890                 3.9176
 Frc consts  --     1.6695                 7.0395                 6.4108
 IR Inten    --     5.9892                 2.1448                 4.9533

                    37                     38                     39
                    A'                     A'                     A'
 Frequencies --  1704.9411              1711.9841              3143.6267
 Red. masses --     4.3794                 3.9042                 1.0890
 Frc consts  --     7.5003                 6.7419                 6.3409
 IR Inten    --    10.9604                 2.9374                 0.9211

                    40                     41                     42
                    A'                     A'                     A'
 Frequencies --  3145.3006              3146.8193              3154.8029
 Red. masses --     1.0863                 1.0873                 1.0856
 Frc consts  --     6.3319                 6.3438                 6.3662
 IR Inten    --     0.4766                17.5863                12.8310

                    43                     44                     45
                    A'                     A'                     A'
 Frequencies --  3159.3164              3165.1293              3166.0022
 Red. masses --     1.0826                 1.0820                 1.0648
 Frc consts  --     6.3664                 6.3867                 6.2885
 IR Inten    --    31.7614                63.7486                 7.0627

                    46                     47                     48
                    A'                     A'                     A'
 Frequencies --  3171.1860              3248.9865              3249.6078
 Red. masses --     1.0718                 1.1158                 1.1156
 Frc consts  --     6.3506                 6.9396                 6.9412
 IR Inten    --     6.6213                15.5710                15.3679

 - Thermochemistry -
 -------------------
 Temperature   298.150 Kelvin.  Pressure   1.00000 Atm.
 Atom     1 has atomic number  6 and mass  12.00000

 Molecular mass:   106.07825 amu.
 Principal axes and moments of inertia in atomic units:
                           1         2         3
     Eigenvalues --   163.828672891.698093055.52676
           X           -0.01404   0.99990   0.00000
           Y            0.99990   0.01404   0.00000
           Z            0.00000   0.00000   1.00000
 This molecule is an asymmetric top.
 Rotational symmetry number  1.
 Rotational temperatures (Kelvin)      0.52869     0.02995     0.02835
 Rotational constants (GHZ):          11.01603     0.62411     0.59065
    1 imaginary frequencies ignored.
 Zero-point vibrational energy     400569.0 (Joules/Mol)
                                   95.73828 (Kcal/Mol)
 Warning -- explicit consideration of   9 degrees of freedom as
           vibrations may cause significant error
 Vibrational temperatures:    117.88   130.39   252.88   313.92   357.94
          (Kelvin)            471.61   481.25   624.82   741.94   912.75
                              913.52   967.15  1243.94  1309.45  1316.31
                             1325.48  1385.00  1390.19  1446.19  1466.44
                             1492.18  1524.80  1550.28  1711.68  1756.67
                             1832.92  1904.31  1914.71  1932.03  1963.43
                             1982.85  2121.87  2127.79  2373.87  2397.80
                             2453.03  2463.16  4522.97  4525.38  4527.57
                             4539.05  4545.55  4553.91  4555.17  4562.62
                             4674.56  4675.45

 Zero-point correction=                           0.152569 (Hartree/Particle)
 Thermal correction to Energy=                    0.160777
 Thermal correction to Enthalpy=                  0.161721
 Thermal correction to Gibbs Free Energy=         0.119541
 Sum of electronic and zero-point Energies=           -310.647341
 Sum of electronic and thermal Energies=              -310.639133
 Sum of electronic and thermal Enthalpies=            -310.638188
 Sum of electronic and thermal Free Energies=         -310.680369

                     E (Thermal)             CV                S
                      KCal/Mol        Cal/Mol-Kelvin    Cal/Mol-Kelvin
 Total                  100.889             29.992             88.777
 Electronic               0.000              0.000              0.000
 Translational            0.889              2.981             39.894
 Rotational               0.889              2.981             28.761
 Vibrational             99.112             24.030             20.122
 Vibration     1          0.600              1.962              3.844
 Vibration     2          0.602              1.956              3.647
 Vibration     3          0.628              1.872              2.373
 Vibration     4          0.646              1.813              1.974
 Vibration     5          0.662              1.765              1.739
 Vibration     6          0.711              1.620              1.271
 Vibration     7          0.716              1.607              1.238
 Vibration     8          0.795              1.396              0.845
 Vibration     9          0.871              1.215              0.620

 Optimization completed.
    -- Stationary point found.
 Normal termination of Gaussian 09 at Tue Mar  2 14:30:00 2021.
