 Gaussian 09, Revision C.01,
 Gaussian 09:  EM64L-G09RevC.01 23-Sep-2011

 -----------------------------------------
 # b3lyp/6-31g* geom=connectivity opt freq
 -----------------------------------------

 99/9=1/99;
 -------------------
 Title Card Required
 -------------------
 Charge =  0 Multiplicity = 1

 SCF Done:  E(RB3LYP) =  -310.779391847     A.U. after   14 cycles
 SCF Done:  E(RB3LYP) =  -310.795265229     A.U. after   13 cycles
 SCF Done:  E(RB3LYP) =  -310.798905257     A.U. after   13 cycles
 SCF Done:  E(RB3LYP) =  -310.799814750     A.U. after   12 cycles
 SCF Done:  E(RB3LYP) =  -310.799920422     A.U. after   12 cycles
 SCF Done:  E(RB3LYP) =  -310.799946530     A.U. after   11 cycles
 SCF Done:  E(RB3LYP) =  -310.799949685     A.U. after   10 cycles
 SCF Done:  E(RB3LYP) =  -310.799951608     A.U. after   10 cycles
 SCF Done:  E(RB3LYP) =  -310.799952082     A.U. after    8 cycles
 SCF Done:  E(RB3LYP) =  -310.799952124     A.U. after    7 cycles
 Optimization completed.
    -- Stationary point found.
 Normal termination of Gaussian 09 at Tue Mar  2 15:02:54 2021.

 --------------------------------------------------------------------
 #N Geom=AllCheck Guess=TCheck SCRF=Check GenChk RB3LYP/6-31G(d) Freq
 --------------------------------------------------------------------

 Structure from the checkpoint file:  octa_1g-cis.chk
 -------------------
 Title Card Required
 -------------------
 Charge =  0 Multiplicity = 1

                         Standard orientation:
 ---------------------------------------------------------------------
 Center     Atomic      Atomic             Coordinates (Angstroms)
 Number     Number       Type             X           Y           Z
 ---------------------------------------------------------------------
      1          6           0        3.696050    0.951227    0.101382
      2          1           0        4.750769    1.192188    0.010217
      3          1           0        3.030571    1.774581    0.348378
      4          6           0        3.252402   -0.304693   -0.072812
      5          1           0        3.989328   -1.081755   -0.275871
      6          6           0        1.869618   -0.767696   -0.001327
      7          1           0        1.736339   -1.845285    0.097611
      8          6           0        0.756014    0.001608   -0.065702
      9          1           0        0.857726    1.077621   -0.208402
     10          6           0       -0.586688   -0.513057    0.027408
     11          1           0       -0.692530   -1.590478    0.163586
     12          6           0       -1.706535    0.248203   -0.041740
     13          1           0       -1.605091    1.325916   -0.176582
     14          6           0       -3.053635   -0.273392    0.053824
     15          1           0       -3.146796   -1.351696    0.188136
     16          6           0       -4.167581    0.475861   -0.012100
     17          1           0       -5.157138    0.036138    0.064531
     18          1           0       -4.121050    1.554405   -0.145195
 ---------------------------------------------------------------------

 SCF Done:  E(RB3LYP) =  -310.799952124     A.U. after    1 cycles

 The electronic state is 1-A.
 Alpha  occ. eigenvalues --  -10.19366 -10.19341 -10.19332 -10.19297 -10.19241
 Alpha  occ. eigenvalues --  -10.19221 -10.18398 -10.18342  -0.82273  -0.79613
 Alpha  occ. eigenvalues --   -0.75635  -0.70693  -0.63404  -0.58146  -0.55804
 Alpha  occ. eigenvalues --   -0.52938  -0.48845  -0.46665  -0.44334  -0.42953
 Alpha  occ. eigenvalues --   -0.39699  -0.38630  -0.36009  -0.35507  -0.34575
 Alpha  occ. eigenvalues --   -0.34274  -0.30926  -0.26100  -0.19698
 Alpha virt. eigenvalues --   -0.05923   0.01413   0.07947   0.09397   0.11230
 Alpha virt. eigenvalues --    0.11354   0.12669   0.12768   0.15644   0.16063
 Alpha virt. eigenvalues --    0.18514   0.19549   0.20194   0.20498   0.29353

 Mulliken atomic charges:
              1
     1  C   -0.337254
     2  H    0.144180
     3  H    0.141717
     4  C   -0.079218
     5  H    0.128389
     6  C   -0.150632
     7  H    0.125634
     8  C   -0.098134
     9  H    0.126115
    10  C   -0.121442
    11  H    0.124467
    12  C   -0.124408
    13  H    0.124089
    14  C   -0.059873
    15  H    0.126376
    16  C   -0.355850
    17  H    0.144630
    18  H    0.141215
 Sum of Mulliken atomic charges =   0.00000

 Dipole moment (field-independent basis, Debye):
    X=              0.0449    Y=             -0.1101    Z=             -0.0099  Tot=              0.1193
 Quadrupole moment (field-independent basis, Debye-Ang):
   XX=            -44.4149   YY=            -43.7708   ZZ=            -53.4687
   XY=             -0.2140   XZ=             -0.4708   YZ=             -0.3919

  Exact polarizability: 235.235  -9.335  83.154   1.072  -1.007  30.383
 Approx polarizability: 378.448 -34.724 135.903   4.732  -1.313  44.425

                     1                      2                      3
                     A                      A                      A
 Frequencies --    60.6386                78.9287                91.6990
 Red. masses --     1.7401                 3.3698                 3.4517
 Frc consts  --     0.0038                 0.0124                 0.0171
 IR Inten    --     0.0338                 0.3377                 0.9498

                     4                      5                      6
                     A                      A                      A
 Frequencies --   179.9870               214.2927               255.0941
 Red. masses --     2.3112                 3.1520                 2.0668
 Frc consts  --     0.0441                 0.0853                 0.0792
 IR Inten    --     0.2454                 1.9861                 0.5724

                     7                      8                      9
                     A                      A                      A
 Frequencies --   321.1499               338.7270               433.7170
 Red. masses --     2.7748                 2.5962                 3.4395
 Frc consts  --     0.1686                 0.1755                 0.3812
 IR Inten    --     0.1037                 0.1998                 1.6961

                    10                     11                     12
                     A                      A                      A
 Frequencies --   515.1407               615.9496               651.6128
 Red. masses --     2.7942                 1.8211                 1.6955
 Frc consts  --     0.4369                 0.4071                 0.4242
 IR Inten    --    11.9510                 6.6172                 5.8590

                    13                     14                     15
                     A                      A                      A
 Frequencies --   675.5801               864.4147               909.5690
 Red. masses --     1.6057                 1.7357                 1.6982
 Frc consts  --     0.4318                 0.7641                 0.8278
 IR Inten    --     0.9293                 1.1417                 8.4201

                    16                     17                     18
                     A                      A                      A
 Frequencies --   917.3143               920.4649               962.2103
 Red. masses --     1.4002                 1.6444                 1.6060
 Frc consts  --     0.6942                 0.8208                 0.8761
 IR Inten    --    52.8332                14.4504                 0.8343

                    19                     20                     21
                     A                      A                      A
 Frequencies --   965.4820              1002.7947              1018.5531
 Red. masses --     1.1908                 2.0017                 1.1148
 Frc consts  --     0.6540                 1.1860                 0.6814
 IR Inten    --     0.7856                 0.1116                 9.5577

                    22                     23                     24
                     A                      A                      A
 Frequencies --  1033.6908              1058.3933              1076.7382
 Red. masses --     1.1429                 1.0915                 1.5451
 Frc consts  --     0.7195                 0.7204                 1.0554
 IR Inten    --    10.0668                57.4095                 5.7691

                    25                     26                     27
                     A                      A                      A
 Frequencies --  1187.6863              1219.4528              1272.6037
 Red. masses --     2.0701                 2.1357                 1.3003
 Frc consts  --     1.7205                 1.8712                 1.2407
 IR Inten    --     3.0979                 6.8208                 0.0281

                    28                     29                     30
                     A                      A                      A
 Frequencies --  1321.7491              1329.3279              1341.8932
 Red. masses --     1.5382                 1.3701                 1.3607
 Frc consts  --     1.5832                 1.4264                 1.4436
 IR Inten    --     6.4394                 2.5203                 0.3418

                    31                     32                     33
                     A                      A                      A
 Frequencies --  1361.8954              1373.2755              1472.9200
 Red. masses --     1.3397                 1.3759                 1.2336
 Frc consts  --     1.4640                 1.5289                 1.5768
 IR Inten    --     1.9437                 2.2353                 1.5082

                    34                     35                     36
                     A                      A                      A
 Frequencies --  1477.8290              1650.9706              1668.3956
 Red. masses --     1.3025                 4.4579                 4.0271
 Frc consts  --     1.6761                 7.1591                 6.6045
 IR Inten    --     4.9087                 1.2890                 5.3787

                    37                     38                     39
                     A                      A                      A
 Frequencies --  1705.2703              1711.1939              3142.9165
 Red. masses --     4.3952                 3.9509                 1.0882
 Frc consts  --     7.5304                 6.8163                 6.3332
 IR Inten    --    10.9710                 2.5110                 4.0186

                    40                     41                     42
                     A                      A                      A
 Frequencies --  3144.1768              3145.3090              3154.2326
 Red. masses --     1.0871                 1.0868                 1.0860
 Frc consts  --     6.3319                 6.3345                 6.3657
 IR Inten    --     7.6168                 8.7764                14.6459

                    43                     44                     45
                     A                      A                      A
 Frequencies --  3157.8288              3162.5495              3165.8475
 Red. masses --     1.0832                 1.0855                 1.0646
 Frc consts  --     6.3641                 6.3964                 6.2864
 IR Inten    --    23.3415                67.2347                 7.2504

                    46                     47                     48
                     A                      A                      A
 Frequencies --  3169.7850              3248.5755              3249.3132
 Red. masses --     1.0680                 1.1160                 1.1157
 Frc consts  --     6.3226                 6.9392                 6.9403
 IR Inten    --     6.7668                16.2912                15.3818

 - Thermochemistry -
 -------------------
 Temperature   298.150 Kelvin.  Pressure   1.00000 Atm.
 Atom     1 has atomic number  6 and mass  12.00000

 Molecular mass:   106.07825 amu.
 Principal axes and moments of inertia in atomic units:
                           1         2         3
     Eigenvalues --   165.011222887.365263047.57151
           X            1.00000   0.00140  -0.00021
           Y           -0.00140   0.99995  -0.00989
           Z            0.00020   0.00990   0.99995
 This molecule is an asymmetric top.
 Rotational symmetry number  1.
 Rotational temperatures (Kelvin)      0.52490     0.03000     0.02842
 Rotational constants (GHZ):          10.93708     0.62505     0.59219
 Zero-point vibrational energy     400731.9 (Joules/Mol)
                                   95.77722 (Kcal/Mol)
 Warning -- explicit consideration of  11 degrees of freedom as
           vibrations may cause significant error
 Vibrational temperatures:     87.25   113.56   131.93   258.96   308.32
          (Kelvin)            367.02   462.06   487.35   624.02   741.17
                              886.21   937.52   972.01  1243.70  1308.67
                             1319.81  1324.34  1384.40  1389.11  1442.80
                             1465.47  1487.25  1522.79  1549.18  1708.81
                             1754.52  1830.99  1901.70  1912.60  1930.68
                             1959.46  1975.83  2119.20  2126.26  2375.38
                             2400.45  2453.50  2462.02  4521.95  4523.76
                             4525.39  4538.23  4543.41  4550.20  4554.94
                             4560.61  4673.97  4675.03

 Zero-point correction=                           0.152631 (Hartree/Particle)
 Thermal correction to Energy=                    0.161652
 Thermal correction to Enthalpy=                  0.162596
 Thermal correction to Gibbs Free Energy=         0.118299
 Sum of electronic and zero-point Energies=           -310.647321
 Sum of electronic and thermal Energies=              -310.638300
 Sum of electronic and thermal Enthalpies=            -310.637356
 Sum of electronic and thermal Free Energies=         -310.681654

                     E (Thermal)             CV                S
                      KCal/Mol        Cal/Mol-Kelvin    Cal/Mol-Kelvin
 Total                  101.438             31.978             93.232
 Electronic               0.000              0.000              0.000
 Translational            0.889              2.981             39.894
 Rotational               0.889              2.981             28.764
 Vibrational             99.660             26.016             24.573
 Vibration     1          0.597              1.973              4.436
 Vibration     2          0.600              1.963              3.917
 Vibration     3          0.602              1.955              3.623
 Vibration     4          0.629              1.867              2.329
 Vibration     5          0.644              1.819              2.007
 Vibration     6          0.665              1.754              1.695
 Vibration     7          0.707              1.633              1.304
 Vibration     8          0.719              1.598              1.218
 Vibration     9          0.794              1.397              0.847
 Vibration    10          0.870              1.216              0.621
 Vibration    11          0.976              0.998              0.423

 Optimization completed.
    -- Stationary point found.
 Normal termination of Gaussian 09 at Tue Mar  2 15:06:26 2021.
