 Gaussian 09, Revision C.01,
 Gaussian 09:  EM64L-G09RevC.01 23-Sep-2011

 -----------------------------------------
 # b3lyp/6-31g* geom=connectivity opt freq
 -----------------------------------------

 99/9=1/99;
 -------------------
 Title Card Required
 -------------------
 Charge =  0 Multiplicity = 1

 SCF Done:  E(RB3LYP) =  -310.779019457     A.U. after   14 cycles
 SCF Done:  E(RB3LYP) =  -310.797632184     A.U. after   13 cycles
 SCF Done:  E(RB3LYP) =  -310.799780890     A.U. after   12 cycles
 SCF Done:  E(RB3LYP) =  -310.800122491     A.U. after   11 cycles
 SCF Done:  E(RB3LYP) =  -310.800131984     A.U. after    8 cycles
 SCF Done:  E(RB3LYP) =  -310.800132542     A.U. after    7 cycles
 Optimization completed.
    -- Stationary point found.
 Normal termination of Gaussian 09 at Tue Mar  2 14:28:49 2021.

 --------------------------------------------------------------------
 #N Geom=AllCheck Guess=TCheck SCRF=Check GenChk RB3LYP/6-31G(d) Freq
 --------------------------------------------------------------------

 Structure from the checkpoint file:  octa_2-cis.chk
 -------------------
 Title Card Required
 -------------------
 Charge =  0 Multiplicity = 1

                         Standard orientation:
 ---------------------------------------------------------------------
 Center     Atomic      Atomic             Coordinates (Angstroms)
 Number     Number       Type             X           Y           Z
 ---------------------------------------------------------------------
      1          6           0        0.000000    3.835297   -0.974789
      2          1           0        0.000000    4.913236   -0.846533
      3          1           0        0.000000    3.464997   -1.997553
      4          6           0        0.000000    2.997656    0.076640
      5          1           0        0.000000    3.411287    1.085788
      6          6           0        0.000000    1.553616   -0.024741
      7          1           0        0.000000    1.139342   -1.032834
      8          6           0        0.000000    0.725969    1.048867
      9          1           0        0.000000    1.190118    2.035272
     10          6           0        0.000000   -0.725969    1.048867
     11          1           0        0.000000   -1.190118    2.035272
     12          6           0        0.000000   -1.553616   -0.024741
     13          1           0        0.000000   -1.139342   -1.032834
     14          6           0        0.000000   -2.997656    0.076640
     15          1           0        0.000000   -3.411287    1.085788
     16          6           0        0.000000   -3.835297   -0.974789
     17          1           0        0.000000   -4.913236   -0.846533
     18          1           0        0.000000   -3.464997   -1.997553
 ---------------------------------------------------------------------

 SCF Done:  E(RB3LYP) =  -310.800132542     A.U. after    1 cycles

 The electronic state is 1-A1.
 Alpha  occ. eigenvalues --  -10.19394 -10.19365 -10.19352 -10.19349 -10.19249
 Alpha  occ. eigenvalues --  -10.19246 -10.18404 -10.18404  -0.82270  -0.79673
 Alpha  occ. eigenvalues --   -0.75699  -0.70706  -0.63532  -0.56922  -0.56663
 Alpha  occ. eigenvalues --   -0.53883  -0.47989  -0.47189  -0.44415  -0.42037
 Alpha  occ. eigenvalues --   -0.40573  -0.38229  -0.36580  -0.34870  -0.34702
 Alpha  occ. eigenvalues --   -0.34441  -0.31225  -0.26093  -0.19654
 Alpha virt. eigenvalues --   -0.06100   0.01854   0.07105   0.09054   0.12252
 Alpha virt. eigenvalues --    0.12442   0.12464   0.13051   0.13248   0.16160
 Alpha virt. eigenvalues --    0.17962   0.19955   0.20298   0.22177   0.31414

 Mulliken atomic charges:
              1
     1  C   -0.358899
     2  H    0.144886
     3  H    0.141050
     4  C   -0.056757
     5  H    0.126861
     6  C   -0.099682
     7  H    0.126128
     8  C   -0.148475
     9  H    0.124888
    10  C   -0.148475
    11  H    0.124888
    12  C   -0.099682
    13  H    0.126128
    14  C   -0.056757
    15  H    0.126861
    16  C   -0.358899
    17  H    0.144886
    18  H    0.141050
 Sum of Mulliken atomic charges =   0.00000

 Dipole moment (field-independent basis, Debye):
    X=              0.0000    Y=              0.0000    Z=              0.1210  Tot=              0.1210
 Quadrupole moment (field-independent basis, Debye-Ang):
   XX=            -53.6957   YY=            -44.5186   ZZ=            -43.5933
   XY=              0.0000   XZ=              0.0000   YZ=              0.0000

  Exact polarizability:  29.106   0.000 220.592   0.000   0.000  93.582
 Approx polarizability:  42.493   0.000 345.534   0.000   0.000 161.166

                     1                      2                      3
                    A2                     A1                     B1
 Frequencies --    27.0155                89.0763               124.3461
 Red. masses --     1.5281                 3.6623                 2.0212
 Frc consts  --     0.0007                 0.0171                 0.0184
 IR Inten    --     0.0000                 0.0041                 1.1424

                     4                      5                      6
                    A2                     B1                     B2
 Frequencies --   153.4393               207.9562               219.6195
 Red. masses --     3.4875                 2.4681                 3.0479
 Frc consts  --     0.0484                 0.0629                 0.0866
 IR Inten    --     0.0000                 0.0009                 8.9022

                     7                      8                      9
                    A1                     A2                     A1
 Frequencies --   323.9303               378.1081               435.1210
 Red. masses --     3.9338                 1.9909                 2.9199
 Frc consts  --     0.2432                 0.1677                 0.3257
 IR Inten    --     0.5025                 0.0000                 0.0671

                    10                     11                     12
                    B2                     B1                     B2
 Frequencies --   509.4214               637.6033               659.5778
 Red. masses --     2.7287                 1.2556                 4.3918
 Frc consts  --     0.4172                 0.3007                 1.1257
 IR Inten    --     2.3643                 5.2657                 4.3642

                    13                     14                     15
                    A2                     B1                     A2
 Frequencies --   671.0360               862.9033               905.3293
 Red. masses --     1.5107                 1.8317                 1.6738
 Frc consts  --     0.4008                 0.8036                 0.8083
 IR Inten    --     0.0000                 8.4531                 0.0000

                    16                     17                     18
                    B1                     A2                     A1
 Frequencies --   916.5415               921.7068               950.6014
 Red. masses --     1.3707                 1.6694                 1.6027
 Frc consts  --     0.6784                 0.8356                 0.8533
 IR Inten    --    70.6456                 0.0000                 0.2363

                    19                     20                     21
                    B2                     B1                     A2
 Frequencies --   975.3708               979.7792               992.0994
 Red. masses --     1.4234                 1.1476                 1.1455
 Frc consts  --     0.7979                 0.6491                 0.6643
 IR Inten    --     0.4686                14.0579                 0.0000

                    22                     23                     24
                    A2                     B1                     A1
 Frequencies --  1052.7387              1053.0008              1087.8954
 Red. masses --     1.0971                 1.0938                 2.1122
 Frc consts  --     0.7163                 0.7146                 1.4728
 IR Inten    --     0.0000                64.6060                 0.1097

                    25                     26                     27
                    A1                     B2                     A1
 Frequencies --  1203.1457              1223.7997              1300.3681
 Red. masses --     2.4764                 2.0106                 1.2931
 Frc consts  --     2.1121                 1.7742                 1.2883
 IR Inten    --     0.0001                22.2887                 0.5967

                    28                     29                     30
                    B2                     B2                     A1
 Frequencies --  1319.1824              1324.2285              1330.9993
 Red. masses --     1.3114                 1.5137                 1.4084
 Frc consts  --     1.3446                 1.5640                 1.4701
 IR Inten    --     0.2705                11.1555                 1.3993

                    31                     32                     33
                    B2                     A1                     A1
 Frequencies --  1353.1214              1380.5504              1476.9657
 Red. masses --     1.3138                 1.3853                 1.2784
 Frc consts  --     1.4173                 1.5556                 1.6431
 IR Inten    --     0.0324                 4.4388                 1.6304

                    34                     35                     36
                    B2                     A1                     B2
 Frequencies --  1477.3246              1648.5094              1667.9806
 Red. masses --     1.2667                 4.8863                 3.5827
 Frc consts  --     1.6289                 7.8238                 5.8727
 IR Inten    --     1.5499                 1.6322                15.9833

                    37                     38                     39
                    A1                     B2                     B2
 Frequencies --  1690.0353              1719.7249              3143.2687
 Red. masses --     3.8234                 4.4531                 1.0875
 Frc consts  --     6.4342                 7.7594                 6.3307
 IR Inten    --     6.5202                 0.4623                16.1948

                    40                     41                     42
                    B2                     A1                     B2
 Frequencies --  3147.5220              3148.7908              3159.4808
 Red. masses --     1.0842                 1.0841                 1.0873
 Frc consts  --     6.3284                 6.3328                 6.3947
 IR Inten    --     5.7738                 9.7288                37.0704

                    43                     44                     45
                    A1                     B2                     A1
 Frequencies --  3160.0914              3165.8666              3165.9845
 Red. masses --     1.0910                 1.0643                 1.0656
 Frc consts  --     6.4191                 6.2851                 6.2932
 IR Inten    --     6.3880                 5.5858                 2.7130

                    46                     47                     48
                    A1                     B2                     A1
 Frequencies --  3167.4450              3249.4558              3249.5330
 Red. masses --     1.0858                 1.1156                 1.1156
 Frc consts  --     6.4184                 6.9403                 6.9406
 IR Inten    --    59.3996                19.1694                11.5074

 - Thermochemistry -
 -------------------
 Temperature   298.150 Kelvin.  Pressure   1.00000 Atm.
 Atom     1 has atomic number  6 and mass  12.00000

 Molecular mass:   106.07825 amu.
 Principal axes and moments of inertia in atomic units:
                           1         2         3
     Eigenvalues --   256.066132646.352002902.41813
           X            0.00000   0.00000   1.00000
           Y            1.00000   0.00000   0.00000
           Z            0.00000   1.00000   0.00000
 This molecule is an asymmetric top.
 Rotational symmetry number  2.
 Rotational temperatures (Kelvin)      0.33825     0.03273     0.02984
 Rotational constants (GHZ):           7.04795     0.68197     0.62181
 Zero-point vibrational energy     400794.4 (Joules/Mol)
                                   95.79216 (Kcal/Mol)
 Warning -- explicit consideration of  10 degrees of freedom as
           vibrations may cause significant error
 Vibrational temperatures:     38.87   128.16   178.91   220.76   299.20
          (Kelvin)            315.98   466.06   544.01   626.04   732.94
                              917.37   948.98   965.47  1241.52  1302.57
                             1318.70  1326.13  1367.70  1403.34  1409.68
                             1427.41  1514.65  1515.03  1565.24  1731.06
                             1760.77  1870.94  1898.01  1905.27  1915.01
                             1946.84  1986.30  2125.02  2125.54  2371.83
                             2399.85  2431.58  2474.30  4522.46  4528.58
                             4530.40  4545.78  4546.66  4554.97  4555.14
                             4557.24  4675.24  4675.35

 Zero-point correction=                           0.152655 (Hartree/Particle)
 Thermal correction to Energy=                    0.161719
 Thermal correction to Enthalpy=                  0.162663
 Thermal correction to Gibbs Free Energy=         0.118311
 Sum of electronic and zero-point Energies=           -310.647478
 Sum of electronic and thermal Energies=              -310.638414
 Sum of electronic and thermal Enthalpies=            -310.637470
 Sum of electronic and thermal Free Energies=         -310.681821

                     E (Thermal)             CV                S
                      KCal/Mol        Cal/Mol-Kelvin    Cal/Mol-Kelvin
 Total                  101.480             31.948             93.346
 Electronic               0.000              0.000              0.000
 Translational            0.889              2.981             39.894
 Rotational               0.889              2.981             27.688
 Vibrational             99.703             25.986             25.764
 Vibration     1          0.593              1.984              6.037
 Vibration     2          0.602              1.957              3.680
 Vibration     3          0.610              1.929              3.032
 Vibration     4          0.619              1.899              2.629
 Vibration     5          0.641              1.829              2.062
 Vibration     6          0.647              1.811              1.962
 Vibration     7          0.708              1.628              1.290
 Vibration     8          0.748              1.517              1.047
 Vibration     9          0.796              1.394              0.842
 Vibration    10          0.865              1.229              0.635

 Optimization completed.
    -- Stationary point found.
 Normal termination of Gaussian 09 at Tue Mar  2 14:30:30 2021.
