 Gaussian 09, Revision C.01,
 Gaussian 09:  EM64L-G09RevC.01 23-Sep-2011

 -----------------------------------------
 # b3lyp/6-31g* geom=connectivity opt freq
 -----------------------------------------

 99/9=1/99;
 -------------------
 Title Card Required
 -------------------
 Charge =  0 Multiplicity = 1

 SCF Done:  E(RB3LYP) =  -310.762526263     A.U. after   13 cycles
 SCF Done:  E(RB3LYP) =  -310.783205116     A.U. after   12 cycles
 SCF Done:  E(RB3LYP) =  -310.786118942     A.U. after   12 cycles
 SCF Done:  E(RB3LYP) =  -310.787596205     A.U. after   11 cycles
 SCF Done:  E(RB3LYP) =  -310.787611568     A.U. after    9 cycles
 SCF Done:  E(RB3LYP) =  -310.787612954     A.U. after    7 cycles
 Optimization completed.
    -- Stationary point found.
 Normal termination of Gaussian 09 at Tue Mar  2 14:30:00 2021.

 --------------------------------------------------------------------
 #N Geom=AllCheck Guess=TCheck SCRF=Check GenChk RB3LYP/6-31G(d) Freq
 --------------------------------------------------------------------

 Structure from the checkpoint file:  octa_1.chk,2,3-cis.chk
 -------------------
 Title Card Required
 -------------------
 Charge =  0 Multiplicity = 1

                         Standard orientation:
 ---------------------------------------------------------------------
 Center     Atomic      Atomic             Coordinates (Angstroms)
 Number     Number       Type             X           Y           Z
 ---------------------------------------------------------------------
      1          6           0        0.000000    3.822567   -0.527714
      2          1           0        0.000000    4.901716   -0.409824
      3          1           0        0.000000    3.449995   -1.548734
      4          6           0        0.000000    3.010125    0.542950
      5          1           0        0.000000    3.476413    1.527825
      6          6           0        0.000000    1.549722    0.562138
      7          1           0        0.000000    1.105074    1.556069
      8          6           0        0.000000    0.726338   -0.514240
      9          1           0        0.000000    1.180610   -1.504146
     10          6           0        0.000000   -0.726338   -0.514240
     11          1           0        0.000000   -1.180610   -1.504146
     12          6           0        0.000000   -1.549722    0.562138
     13          1           0        0.000000   -1.105074    1.556069
     14          6           0        0.000000   -3.010125    0.542950
     15          1           0        0.000000   -3.476413    1.527825
     16          6           0        0.000000   -3.822567   -0.527714
     17          1           0        0.000000   -4.901716   -0.409824
     18          1           0        0.000000   -3.449995   -1.548734
 ---------------------------------------------------------------------

 SCF Done:  E(RB3LYP) =  -310.787612954     A.U. after    1 cycles

 The electronic state is 1-A1.
 Alpha  occ. eigenvalues --  -10.19346 -10.19345 -10.19322 -10.19291 -10.19187
 Alpha  occ. eigenvalues --  -10.19183 -10.18335 -10.18335  -0.82054  -0.79316
 Alpha  occ. eigenvalues --   -0.75258  -0.70089  -0.64547  -0.59476  -0.55013
 Alpha  occ. eigenvalues --   -0.50407  -0.50074  -0.46174  -0.45510  -0.41798
 Alpha  occ. eigenvalues --   -0.41527  -0.37218  -0.36331  -0.34663  -0.34229
 Alpha  occ. eigenvalues --   -0.34207  -0.30947  -0.25905  -0.19497
 Alpha virt. eigenvalues --   -0.06650   0.00821   0.07906   0.08900   0.10691
 Alpha virt. eigenvalues --    0.11229   0.12416   0.13781   0.15593   0.17904
 Alpha virt. eigenvalues --    0.18654   0.19993   0.22498   0.25866   0.28230

 Mulliken atomic charges:
              1
     1  C   -0.339168
     2  H    0.144829
     3  H    0.141795
     4  C   -0.076094
     5  H    0.126845
     6  C   -0.124825
     7  H    0.126189
     8  C   -0.124133
     9  H    0.124561
    10  C   -0.124133
    11  H    0.124561
    12  C   -0.124825
    13  H    0.126189
    14  C   -0.076094
    15  H    0.126845
    16  C   -0.339168
    17  H    0.144829
    18  H    0.141795
 Sum of Mulliken atomic charges =   0.00000

 Dipole moment (field-independent basis, Debye):
    X=              0.0000    Y=              0.0000    Z=              0.0925  Tot=              0.0925
 Quadrupole moment (field-independent basis, Debye-Ang):
   XX=            -53.6337   YY=            -44.3872   ZZ=            -43.2677
   XY=              0.0000   XZ=              0.0000   YZ=              0.0000

  Exact polarizability:  28.922   0.000 221.260   0.000   0.000  82.492
 Approx polarizability:  42.072   0.000 348.527   0.000   0.000 136.354

 ******    3 imaginary frequencies (negative Signs) ******

                     1                      2                      3
                    A2                     B1                     A2
 Frequencies --   -62.3494               -62.3227               -36.8921
 Red. masses --     1.6762                 2.3001                 2.0185
 Frc consts  --     0.0038                 0.0053                 0.0016
 IR Inten    --     0.0000                 0.1626                 0.0000

                     4                      5                      6
                    A1                     B1                     A1
 Frequencies --   112.3882               127.8841               240.8441
 Red. masses --     3.5164                 2.1050                 4.3241
 Frc consts  --     0.0262                 0.0203                 0.1478
 IR Inten    --     0.0106                 1.5671                 0.0047

                     7                      8                      9
                    B2                     A2                     B2
 Frequencies --   242.6328               310.8096               486.0105
 Red. masses --     3.1803                 2.3944                 3.1989
 Frc consts  --     0.1103                 0.1363                 0.4452
 IR Inten    --     0.0304                 0.0000                39.9202

                    10                     11                     12
                    A1                     B1                     A2
 Frequencies --   559.0955               620.7285               639.2002
 Red. masses --     2.6603                 1.4101                 1.6550
 Frc consts  --     0.4900                 0.3201                 0.3984
 IR Inten    --     0.0105                 9.8326                 0.0000

                    13                     14                     15
                    B2                     B1                     A2
 Frequencies --   712.6074               846.6932               905.3088
 Red. masses --     3.0645                 1.9210                 1.9343
 Frc consts  --     0.9169                 0.8114                 0.9340
 IR Inten    --     0.2560                 2.5909                 0.0000

                    16                     17                     18
                    B1                     A2                     A1
 Frequencies --   912.7819               913.4188               958.0106
 Red. masses --     1.3994                 1.4970                 3.0998
 Frc consts  --     0.6869                 0.7359                 1.6762
 IR Inten    --    68.3787                 0.0000                 0.0003

                    19                     20                     21
                    B1                     A2                     B2
 Frequencies --  1005.9439              1020.6595              1023.7529
 Red. masses --     1.0879                 1.1197                 2.5846
 Frc consts  --     0.6486                 0.6873                 1.5960
 IR Inten    --    61.5888                 0.0000                 0.4536

                    22                     23                     24
                    A1                     A2                     B1
 Frequencies --  1032.5920              1035.2443              1036.2722
 Red. masses --     1.6814                 1.1186                 1.1182
 Frc consts  --     1.0563                 0.7063                 0.7075
 IR Inten    --     0.0601                 0.0000                11.8261

                    25                     26                     27
                    B2                     A1                     B2
 Frequencies --  1089.7741              1169.4377              1318.7802
 Red. masses --     1.4390                 1.6921                 1.3605
 Frc consts  --     1.0069                 1.3634                 1.3941
 IR Inten    --    18.2291                 1.0023                 1.6126

                    28                     29                     30
                    A1                     A1                     B2
 Frequencies --  1338.6643              1352.7811              1366.7089
 Red. masses --     1.2786                 1.6258                 1.2531
 Frc consts  --     1.3500                 1.7529                 1.3791
 IR Inten    --     0.8136                 0.9539                 0.4395

                    31                     32                     33
                    B2                     A1                     A1
 Frequencies --  1380.4205              1387.8206              1475.6152
 Red. masses --     1.3780                 1.3986                 1.2557
 Frc consts  --     1.5471                 1.5871                 1.6109
 IR Inten    --    26.4588                 0.5694                 5.7260

                    34                     35                     36
                    B2                     A1                     B2
 Frequencies --  1478.1635              1623.8666              1682.0679
 Red. masses --     1.2640                 4.1123                 4.0740
 Frc consts  --     1.6272                 6.3890                 6.7914
 IR Inten    --     0.1209                 0.5482                 7.5810

                    37                     38                     39
                    A1                     B2                     B2
 Frequencies --  1707.1379              1713.9501              3146.9248
 Red. masses --     3.6845                 3.7500                 1.0875
 Frc consts  --     6.3265                 6.4904                 6.3453
 IR Inten    --     2.4960                 0.0614                12.8257

                    40                     41                     42
                    A1                     B2                     A1
 Frequencies --  3151.8336              3154.4218              3166.4810
 Red. masses --     1.0849                 1.0823                 1.0727
 Frc consts  --     6.3500                 6.3452                 6.3368
 IR Inten    --    11.2428                50.2992                 5.4972

                    43                     44                     45
                    B2                     B2                     A1
 Frequencies --  3166.8409              3172.0958              3174.5202
 Red. masses --     1.0784                 1.0732                 1.0789
 Frc consts  --     6.3724                 6.3625                 6.4060
 IR Inten    --     4.7128                 9.1753                11.9122

                    46                     47                     48
                    A1                     B2                     A1
 Frequencies --  3176.0071              3249.3245              3249.4216
 Red. masses --     1.0879                 1.1158                 1.1158
 Frc consts  --     6.4653                 6.9412                 6.9416
 IR Inten    --    54.6565                18.0443                12.0304

 - Thermochemistry -
 -------------------
 Temperature   298.150 Kelvin.  Pressure   1.00000 Atm.
 Atom     1 has atomic number  6 and mass  12.00000

 Molecular mass:   106.07825 amu.
 Principal axes and moments of inertia in atomic units:
                           1         2         3
     Eigenvalues --   167.851142644.380072812.23121
           X            0.00000   0.00000   1.00000
           Y            1.00000   0.00000   0.00000
           Z            0.00000   1.00000   0.00000
 This molecule is an asymmetric top.
 Rotational symmetry number  2.
 Rotational temperatures (Kelvin)      0.51602     0.03275     0.03080
 Rotational constants (GHZ):          10.75203     0.68248     0.64175
    3 imaginary frequencies ignored.
 Zero-point vibrational energy     398571.4 (Joules/Mol)
                                   95.26086 (Kcal/Mol)
 Warning -- explicit consideration of   8 degrees of freedom as
           vibrations may cause significant error
 Vibrational temperatures:    161.70   184.00   346.52   349.09   447.19
          (Kelvin)            699.26   804.41   893.09   919.67  1025.28
                             1218.20  1302.54  1313.29  1314.20  1378.36
                             1447.33  1468.50  1472.95  1485.67  1489.48
                             1490.96  1567.94  1682.56  1897.43  1926.04
                             1946.35  1966.39  1986.11  1996.76  2123.08
                             2126.74  2336.38  2420.12  2456.19  2465.99
                             4527.72  4534.78  4538.50  4555.85  4556.37
                             4563.93  4567.42  4569.56  4675.05  4675.19

 Zero-point correction=                           0.151808 (Hartree/Particle)
 Thermal correction to Energy=                    0.158836
 Thermal correction to Enthalpy=                  0.159780
 Thermal correction to Gibbs Free Energy=         0.120787
 Sum of electronic and zero-point Energies=           -310.635805
 Sum of electronic and thermal Energies=              -310.628777
 Sum of electronic and thermal Enthalpies=            -310.627833
 Sum of electronic and thermal Free Energies=         -310.666826

                     E (Thermal)             CV                S
                      KCal/Mol        Cal/Mol-Kelvin    Cal/Mol-Kelvin
 Total                   99.671             26.307             82.068
 Electronic               0.000              0.000              0.000
 Translational            0.889              2.981             39.894
 Rotational               0.889              2.981             27.237
 Vibrational             97.893             20.346             14.937
 Vibration     1          0.607              1.939              3.227
 Vibration     2          0.611              1.925              2.978
 Vibration     3          0.658              1.778              1.797
 Vibration     4          0.659              1.775              1.783
 Vibration     5          0.700              1.653              1.358
 Vibration     6          0.842              1.281              0.694
 Vibration     7          0.915              1.120              0.526
 Vibration     8          0.981              0.988              0.415

 Optimization completed.
    -- Stationary point found.
 Normal termination of Gaussian 09 at Tue Mar  2 14:31:31 2021.
