 Gaussian 09, Revision C.01,
 Gaussian 09:  EM64L-G09RevC.01 23-Sep-2011

 ----------------------------------------------------
 #td=(50-50,nstates=3) b3lyp/6-31g* geom=connectivity
 ----------------------------------------------------
 -------------------
 Title Card Required
 -------------------
 Charge =  0 Multiplicity = 1

                         Standard orientation:
 ---------------------------------------------------------------------
 Center     Atomic      Atomic             Coordinates (Angstroms)
 Number     Number       Type             X           Y           Z
 ---------------------------------------------------------------------
      1          6           0        0.136003    4.312449    0.000000
      2          1           0        0.769532    5.193947    0.000000
      3          1           0       -0.938341    4.482566    0.000000
      4          6           0        0.651135    3.071012    0.000000
      5          1           0        1.734549    2.945832    0.000000
      6          6           0       -0.136003    1.855941    0.000000
      7          1           0       -1.220626    1.972880    0.000000
      8          6           0        0.389410    0.606190    0.000000
      9          1           0        1.474733    0.493967    0.000000
     10          6           0       -0.389410   -0.606190    0.000000
     11          1           0       -1.474733   -0.493967    0.000000
     12          6           0        0.136003   -1.855941    0.000000
     13          1           0        1.220626   -1.972880    0.000000
     14          6           0       -0.651135   -3.071012    0.000000
     15          1           0       -1.734549   -2.945832    0.000000
     16          6           0       -0.136003   -4.312449    0.000000
     17          1           0       -0.769532   -5.193947    0.000000
     18          1           0        0.938341   -4.482566    0.000000
 ---------------------------------------------------------------------

 SCF Done:  E(RB3LYP) =  -310.805684479     A.U. after   14 cycles

 Excitation energies and oscillator strengths:

 Excited State   1:      Triplet-BU     1.6566 eV  748.43 nm  f=0.0000  <S**2>=2.000
      28 -> 31        -0.15793
      29 -> 30         0.71286
      29 <- 30         0.18871
 This state for optimization and/or second-order correction.
 Total Energy, E(TD-HF/TD-KS) =  -310.744805674
 Copying the excited state density for this state as the 1-particle RhoCI density.

 Excited State   2:      Triplet-AG     3.2529 eV  381.15 nm  f=0.0000  <S**2>=2.000
      27 -> 31         0.11319
      28 -> 30         0.54008
      29 -> 31        -0.43746

 Excited State   3:      Singlet-BU     4.1379 eV  299.63 nm  f=1.4496  <S**2>=0.000
      29 -> 30         0.71493
      29 <- 30        -0.12758

 Excited State   4:      Triplet-BU     4.5332 eV  273.51 nm  f=0.0000  <S**2>=2.000
      25 -> 31         0.12184
      27 -> 30         0.50942
      28 -> 31         0.30734
      29 -> 32         0.35120

 Excited State   5:      Singlet-AG     4.8817 eV  253.98 nm  f=0.0000  <S**2>=0.000
      28 -> 30         0.54503
      29 -> 31         0.44694

 Excited State   6:      Singlet-BU     4.9378 eV  251.09 nm  f=0.0002  <S**2>=0.000
      27 -> 30         0.60577
      29 -> 32        -0.36264

 The electronic state is 1-AG.
 Alpha  occ. eigenvalues --  -10.19395 -10.19364 -10.19345 -10.19342 -10.19265
 Alpha  occ. eigenvalues --  -10.19260 -10.18411 -10.18411  -0.82350  -0.79761
 Alpha  occ. eigenvalues --   -0.75851  -0.70973  -0.62900  -0.57005  -0.56144
 Alpha  occ. eigenvalues --   -0.54705  -0.48107  -0.47083  -0.44543  -0.42106
 Alpha  occ. eigenvalues --   -0.39863  -0.38371  -0.36941  -0.35387  -0.34539
 Alpha  occ. eigenvalues --   -0.34510  -0.31265  -0.26197  -0.19702
 Alpha virt. eigenvalues --   -0.05768   0.01875   0.07948   0.09362   0.10724
 Alpha virt. eigenvalues --    0.12369   0.12642   0.12791   0.15295   0.15555
 Alpha virt. eigenvalues --    0.17107   0.19312   0.19919   0.20191   0.28699

 Mulliken atomic charges:
              1
     1  C   -0.355954
     2  H    0.144719
     3  H    0.141204
     4  C   -0.060050
     5  H    0.126492
     6  C   -0.122382
     7  H    0.123951
     8  C   -0.122523
     9  H    0.124543
    10  C   -0.122523
    11  H    0.124543
    12  C   -0.122382
    13  H    0.123951
    14  C   -0.060050
    15  H    0.126492
    16  C   -0.355954
    17  H    0.144719
    18  H    0.141204
 Sum of Mulliken atomic charges =   0.00000

 Dipole moment (field-independent basis, Debye):
    X=              0.0000    Y=              0.0000    Z=              0.0000  Tot=              0.0000
 1\1\GINC-STUDENT-LENOVO-S510\SP\RB3LYP TD-FC\6-31G(d)\C8H10\STUDENT\02
 -Mar-2021\0\\#td=(50-50,nstates=3) b3lyp/6-31g* geom=connectivity\\Tit
 le Card Required\\0,1\C,0,0.136003,4.312449,0.\H,0,0.769532,5.193947,0
 .\H,0,-0.938341,4.482566,0.\C,0,0.651135,3.071012,0.\H,0,1.734549,2.94
 5832,0.\C,0,-0.136003,1.855941,0.\H,0,-1.220626,1.97288,0.\C,0,0.38941
 ,0.60619,0.\H,0,1.474733,0.493967,0.\C,0,-0.38941,-0.60619,0.\H,0,-1.4
 74733,-0.493967,0.\C,0,0.136003,-1.855941,0.\H,0,1.220626,-1.97288,0.\
 C,0,-0.651135,-3.071012,0.\H,0,-1.734549,-2.945832,0.\C,0,-0.136003,-4
 .312449,0.\H,0,-0.769532,-5.193947,0.\H,0,0.938341,-4.482566,0.\\Versi
 on=EM64L-G09RevC.01\State=1-AG\HF=-310.8056845\RMSD=3.998e-09\PG=C02H

 Normal termination of Gaussian 09 at Tue Mar  2 16:24:20 2021.
