 Gaussian 09, Revision C.01,
 Gaussian 09:  EM64L-G09RevC.01 23-Sep-2011

 -----------------------------------------
 # b3lyp/6-31g* geom=connectivity opt freq
 -----------------------------------------

 99/9=1/99;
 -------------------
 Title Card Required
 -------------------
 Charge =  0 Multiplicity = 1

 SCF Done:  E(RB3LYP) =  -310.770955937     A.U. after   13 cycles
 SCF Done:  E(RB3LYP) =  -310.790501124     A.U. after   12 cycles
 SCF Done:  E(RB3LYP) =  -310.792844594     A.U. after   13 cycles
 SCF Done:  E(RB3LYP) =  -310.794129005     A.U. after   11 cycles
 SCF Done:  E(RB3LYP) =  -310.794145299     A.U. after    8 cycles
 SCF Done:  E(RB3LYP) =  -310.794146785     A.U. after    8 cycles
 Optimization completed.
    -- Stationary point found.
 Normal termination of Gaussian 09 at Tue Mar  2 16:58:47 2021.

 --------------------------------------------------------------------
 #N Geom=AllCheck Guess=TCheck SCRF=Check GenChk RB3LYP/6-31G(d) Freq
 --------------------------------------------------------------------

 Structure from the checkpoint file:  test_1.chk
 -------------------
 Title Card Required
 -------------------
 Charge =  0 Multiplicity = 1

                         Standard orientation:
 ---------------------------------------------------------------------
 Center     Atomic      Atomic             Coordinates (Angstroms)
 Number     Number       Type             X           Y           Z
 ---------------------------------------------------------------------
      1          6           0        0.030707    3.819093    0.000000
      2          1           0        0.172480    4.895366    0.000000
      3          1           0       -0.998275    3.468849    0.000000
      4          6           0        1.082231    2.982230    0.000000
      5          1           0        2.078405    3.423649    0.000000
      6          6           0        1.061397    1.522800    0.000000
      7          1           0        2.039147    1.041191    0.000000
      8          6           0       -0.030707    0.719242    0.000000
      9          1           0       -1.026535    1.162811    0.000000
     10          6           0        0.030707   -0.719242    0.000000
     11          1           0        1.026535   -1.162811    0.000000
     12          6           0       -1.061397   -1.522800    0.000000
     13          1           0       -2.039147   -1.041191    0.000000
     14          6           0       -1.082231   -2.982230    0.000000
     15          1           0       -2.078405   -3.423649    0.000000
     16          6           0       -0.030707   -3.819093    0.000000
     17          1           0       -0.172480   -4.895366    0.000000
     18          1           0        0.998275   -3.468849    0.000000
 ---------------------------------------------------------------------

 SCF Done:  E(RB3LYP) =  -310.794146785     A.U. after    1 cycles

 The electronic state is 1-AG.
 Alpha  occ. eigenvalues --  -10.19343 -10.19334 -10.19329 -10.19305 -10.19222
 Alpha  occ. eigenvalues --  -10.19216 -10.18351 -10.18351  -0.82205  -0.79436
 Alpha  occ. eigenvalues --   -0.75447  -0.70464  -0.63795  -0.59511  -0.54173
 Alpha  occ. eigenvalues --   -0.52790  -0.48933  -0.46584  -0.44961  -0.42249
 Alpha  occ. eigenvalues --   -0.41168  -0.36957  -0.36296  -0.35139  -0.34555
 Alpha  occ. eigenvalues --   -0.34379  -0.30996  -0.26017  -0.19562
 Alpha virt. eigenvalues --   -0.06300   0.00826   0.08723   0.09050   0.10887
 Alpha virt. eigenvalues --    0.11322   0.12214   0.12405   0.16605   0.17272
 Alpha virt. eigenvalues --    0.19053   0.19734   0.21205   0.21228   0.30420

 Mulliken atomic charges:
              1
     1  C   -0.339169
     2  H    0.144813
     3  H    0.141194
     4  C   -0.075736
     5  H    0.127100
     6  C   -0.152596
     7  H    0.124528
     8  C   -0.095615
     9  H    0.125481
    10  C   -0.095615
    11  H    0.125481
    12  C   -0.152596
    13  H    0.124528
    14  C   -0.075736
    15  H    0.127100
    16  C   -0.339169
    17  H    0.144813
    18  H    0.141194
 Sum of Mulliken atomic charges =   0.00000

 Dipole moment (field-independent basis, Debye):
    X=              0.0000    Y=              0.0000    Z=              0.0000  Tot=              0.0000
 Quadrupole moment (field-independent basis, Debye-Ang):
   XX=            -43.2850   YY=            -44.3992   ZZ=            -53.6639
   XY=              0.3132   XZ=              0.0000   YZ=              0.0000

  Exact polarizability:  88.996  20.930 219.264   0.000   0.000  29.027
 Approx polarizability: 150.940  40.069 346.254   0.000   0.000  42.299

 ******    2 imaginary frequencies (negative Signs) ******

                     1                      2                      3
                    BG                     AU                     BU
 Frequencies --   -70.4337               -41.2616               100.3138
 Red. masses --     1.5054                 2.3155                 3.5557
 Frc consts  --     0.0044                 0.0023                 0.0211
 IR Inten    --     0.0000                 0.0652                 0.4639

                     4                      5                      6
                    AU                     AG                     AU
 Frequencies --   100.4610               198.6927               255.6840
 Red. masses --     2.8716                 3.6354                 1.8866
 Frc consts  --     0.0171                 0.0846                 0.0727
 IR Inten    --     0.7201                 0.0000                 0.8606

                     7                      8                      9
                    BG                     BU                     AG
 Frequencies --   302.0695               359.6687               416.3456
 Red. masses --     2.3677                 3.2185                 4.0434
 Frc consts  --     0.1273                 0.2453                 0.4130
 IR Inten    --     0.0000                13.7363                 0.0000

                    10                     11                     12
                    AG                     AU                     BG
 Frequencies --   553.3772               626.8244               656.4523
 Red. masses --     2.5931                 1.3956                 1.6671
 Frc consts  --     0.4679                 0.3231                 0.4233
 IR Inten    --     0.0000                11.8820                 0.0000

                    13                     14                     15
                    BU                     AU                     BG
 Frequencies --   657.7592               853.9014               910.2538
 Red. masses --     2.4821                 1.7600                 1.6887
 Frc consts  --     0.6327                 0.7561                 0.8244
 IR Inten    --     9.8945                 0.0924                 0.0000

                    16                     17                     18
                    AU                     BG                     BG
 Frequencies --   913.7692               915.0897               972.6847
 Red. masses --     1.4015                 1.7101                 1.1169
 Frc consts  --     0.6895                 0.8437                 0.6226
 IR Inten    --    70.9268                 0.0000                 0.0000

                    19                     20                     21
                    BU                     AG                     AU
 Frequencies --   974.4455              1019.8275              1035.2118
 Red. masses --     2.9929                 2.1836                 1.1107
 Frc consts  --     1.6744                 1.3380                 0.7013
 IR Inten    --     2.4356                 0.0000                42.8004

                    22                     23                     24
                    BG                     AU                     AG
 Frequencies --  1035.6195              1041.4237              1072.8053
 Red. masses --     1.1176                 1.0916                 1.6667
 Frc consts  --     0.7062                 0.6975                 1.1302
 IR Inten    --     0.0000                30.9666                 0.0000

                    25                     26                     27
                    BU                     AG                     BU
 Frequencies --  1091.8403              1229.3704              1275.0272
 Red. masses --     1.4397                 2.2104                 1.2287
 Frc consts  --     1.0112                 1.9683                 1.1769
 IR Inten    --    16.0432                 0.0000                12.1608

                    28                     29                     30
                    AG                     BU                     AG
 Frequencies --  1320.3497              1330.6694              1366.5795
 Red. masses --     1.5489                 1.3247                 1.3946
 Frc consts  --     1.5909                 1.3820                 1.5346
 IR Inten    --     0.0000                 4.6619                 0.0000

                    31                     32                     33
                    BU                     AG                     BU
 Frequencies --  1375.7758              1396.7476              1476.5591
 Red. masses --     1.2818                 1.4517                 1.2293
 Frc consts  --     1.4295                 1.6687                 1.5791
 IR Inten    --     0.2942                 0.0000                 7.8140

                    34                     35                     36
                    AG                     AG                     BU
 Frequencies --  1476.5865              1650.9919              1664.5865
 Red. masses --     1.2821                 3.7145                 5.5090
 Frc consts  --     1.6470                 5.9655                 8.9937
 IR Inten    --     0.0000                 0.0000                20.9373

                    37                     38                     39
                    BU                     AG                     BU
 Frequencies --  1698.1406              1716.6530              3146.4131
 Red. masses --     3.5051                 3.9646                 1.0875
 Frc consts  --     5.9553                 6.8836                 6.3433
 IR Inten    --     4.0151                 0.0000                26.8958

                    40                     41                     42
                    AG                     AG                     BU
 Frequencies --  3147.6409              3152.3191              3159.0407
 Red. masses --     1.0873                 1.0857                 1.0829
 Frc consts  --     6.3469                 6.3565                 6.3670
 IR Inten    --     0.0000                 0.0000                32.4404

                    43                     44                     45
                    AG                     BU                     BU
 Frequencies --  3164.2749              3167.1261              3172.1376
 Red. masses --     1.0792                 1.0841                 1.0692
 Frc consts  --     6.3665                 6.4067                 6.3389
 IR Inten    --     0.0000                84.7967                12.6721

                    46                     47                     48
                    AG                     BU                     AG
 Frequencies --  3172.3966              3249.7357              3249.7962
 Red. masses --     1.0714                 1.1158                 1.1158
 Frc consts  --     6.3530                 6.9430                 6.9433
 IR Inten    --     0.0000                30.2014                 0.0000

 - Thermochemistry -
 -------------------
 Temperature   298.150 Kelvin.  Pressure   1.00000 Atm.
 Atom     1 has atomic number  6 and mass  12.00000

 Molecular mass:   106.07825 amu.
 Principal axes and moments of inertia in atomic units:
                           1         2         3
     Eigenvalues --   185.163162704.320852889.48400
           X            0.18683   0.98239   0.00000
           Y            0.98239  -0.18683   0.00000
           Z            0.00000   0.00000   1.00000
 This molecule is an asymmetric top.
 Rotational symmetry number  2.
 Rotational temperatures (Kelvin)      0.46777     0.03203     0.02998
 Rotational constants (GHZ):           9.74676     0.66735     0.62459
    2 imaginary frequencies ignored.
 Zero-point vibrational energy     399692.9 (Joules/Mol)
                                   95.52890 (Kcal/Mol)
 Warning -- explicit consideration of   8 degrees of freedom as
           vibrations may cause significant error
 Vibrational temperatures:    144.33   144.54   285.87   367.87   434.61
          (Kelvin)            517.48   599.03   796.19   901.86   944.49
                              946.37  1228.57  1309.65  1314.71  1316.61
                             1399.47  1402.01  1467.30  1489.44  1490.02
                             1498.37  1543.53  1570.91  1768.79  1834.48
                             1899.69  1914.53  1966.20  1979.43  2009.61
                             2124.44  2124.48  2375.41  2394.97  2443.24
                             2469.88  4526.98  4528.75  4535.48  4545.15
                             4552.68  4556.78  4563.99  4564.37  4675.64
                             4675.73

 Zero-point correction=                           0.152235 (Hartree/Particle)
 Thermal correction to Energy=                    0.159809
 Thermal correction to Enthalpy=                  0.160753
 Thermal correction to Gibbs Free Energy=         0.120575
 Sum of electronic and zero-point Energies=           -310.641912
 Sum of electronic and thermal Energies=              -310.634338
 Sum of electronic and thermal Enthalpies=            -310.633393
 Sum of electronic and thermal Free Energies=         -310.673572

                     E (Thermal)             CV                S
                      KCal/Mol        Cal/Mol-Kelvin    Cal/Mol-Kelvin
 Total                  100.282             28.118             84.564
 Electronic               0.000              0.000              0.000
 Translational            0.889              2.981             39.894
 Rotational               0.889              2.981             27.383
 Vibrational             98.504             22.156             17.286
 Vibration     1          0.604              1.949              3.448
 Vibration     2          0.604              1.949              3.445
 Vibration     3          0.637              1.842              2.145
 Vibration     4          0.666              1.753              1.691
 Vibration     5          0.694              1.670              1.405
 Vibration     6          0.734              1.555              1.124
 Vibration     7          0.780              1.435              0.904
 Vibration     8          0.909              1.132              0.537

 Optimization completed.
    -- Stationary point found.
 Normal termination of Gaussian 09 at Tue Mar  2 17:00:07 2021.
