 Gaussian 09, Revision C.01,
 Gaussian 09:  EM64L-G09RevC.01 23-Sep-2011

 -----------------------------------------
 # b3lyp/6-31g* geom=connectivity opt freq
 -----------------------------------------

 99/9=1/99;
 -------------------
 Title Card Required
 -------------------
 Charge =  0 Multiplicity = 1

 SCF Done:  E(RB3LYP) =  -310.770759165     A.U. after   14 cycles
 SCF Done:  E(RB3LYP) =  -310.790456271     A.U. after   15 cycles
 SCF Done:  E(RB3LYP) =  -310.793083269     A.U. after   15 cycles
 SCF Done:  E(RB3LYP) =  -310.793874864     A.U. after   11 cycles
 SCF Done:  E(RB3LYP) =  -310.793888404     A.U. after    9 cycles
 SCF Done:  E(RB3LYP) =  -310.793889607     A.U. after    8 cycles
 Optimization completed.
    -- Stationary point found.
 Normal termination of Gaussian 09 at Tue Mar  2 16:34:09 2021.

 --------------------------------------------------------------------
 #N Geom=AllCheck Guess=TCheck SCRF=Check GenChk RB3LYP/6-31G(d) Freq
 --------------------------------------------------------------------

 Structure from the checkpoint file:  test.chk
 -------------------
 Title Card Required
 -------------------
 Charge =  0 Multiplicity = 1

                         Standard orientation:
 ---------------------------------------------------------------------
 Center     Atomic      Atomic             Coordinates (Angstroms)
 Number     Number       Type             X           Y           Z
 ---------------------------------------------------------------------
      1          6           0        3.341307    2.019746    0.000000
      2          1           0        4.051916    2.840399    0.000000
      3          1           0        3.762620    1.017855    0.000000
      4          6           0        2.017473    2.250938    0.000000
      5          1           0        1.687818    3.289543    0.000000
      6          6           0        0.935731    1.269258    0.000000
      7          1           0       -0.067707    1.692177    0.000000
      8          6           0        1.066931   -0.079288    0.000000
      9          1           0        2.073245   -0.495733    0.000000
     10          6           0        0.000000   -1.064690    0.000000
     11          1           0        0.329796   -2.103827    0.000000
     12          6           0       -1.337405   -0.841716    0.000000
     13          1           0       -1.720799    0.178442    0.000000
     14          6           0       -2.325447   -1.899445    0.000000
     15          1           0       -1.941286   -2.920235    0.000000
     16          6           0       -3.654991   -1.700053    0.000000
     17          1           0       -4.356892   -2.528141    0.000000
     18          1           0       -4.080301   -0.698978    0.000000
 ---------------------------------------------------------------------

 SCF Done:  E(RB3LYP) =  -310.793889607     A.U. after    1 cycles

 The electronic state is 1-A'.
 Alpha  occ. eigenvalues --  -10.19386 -10.19352 -10.19346 -10.19297 -10.19236
 Alpha  occ. eigenvalues --  -10.19194 -10.18401 -10.18336  -0.82170  -0.79494
 Alpha  occ. eigenvalues --   -0.75483  -0.70389  -0.64120  -0.58202  -0.56142
 Alpha  occ. eigenvalues --   -0.51985  -0.48983  -0.46744  -0.44304  -0.43015
 Alpha  occ. eigenvalues --   -0.39803  -0.38742  -0.35671  -0.35187  -0.34367
 Alpha  occ. eigenvalues --   -0.34340  -0.31083  -0.26000  -0.19571
 Alpha virt. eigenvalues --   -0.06393   0.01363   0.07420   0.08977   0.10874
 Alpha virt. eigenvalues --    0.12385   0.12820   0.13091   0.14388   0.16574
 Alpha virt. eigenvalues --    0.18640   0.19939   0.21552   0.24041   0.29346

 Mulliken atomic charges:
              1
     1  C   -0.339183
     2  H    0.144860
     3  H    0.141696
     4  C   -0.076089
     5  H    0.126932
     6  C   -0.125757
     7  H    0.125771
     8  C   -0.122090
     9  H    0.124707
    10  C   -0.150382
    11  H    0.124771
    12  C   -0.098913
    13  H    0.126562
    14  C   -0.056883
    15  H    0.126930
    16  C   -0.358801
    17  H    0.144870
    18  H    0.141000
 Sum of Mulliken atomic charges =   0.00000

 Dipole moment (field-independent basis, Debye):
    X=              0.0137    Y=             -0.0071    Z=              0.0000  Tot=              0.0154
 Quadrupole moment (field-independent basis, Debye-Ang):
   XX=            -44.4279   YY=            -43.5182   ZZ=            -53.6644
   XY=             -0.4517   XZ=              0.0000   YZ=              0.0000

  Exact polarizability: 194.888  62.229 116.516   0.000   0.000  29.017
 Approx polarizability: 322.380  91.839 177.172   0.000   0.000  42.287

 ******    1 imaginary frequencies (negative Signs) ******

                     1                      2                      3
                    A"                     A"                     A'
 Frequencies --   -48.1388                31.6432               102.7521
 Red. masses --     2.0266                 1.7934                 3.6114
 Frc consts  --     0.0028                 0.0011                 0.0225
 IR Inten    --     0.0783                 0.0009                 0.1832

                     4                      5                      6
                    A"                     A"                     A'
 Frequencies --   124.8990               181.3852               220.7692
 Red. masses --     2.1296                 2.7477                 3.3609
 Frc consts  --     0.0196                 0.0533                 0.0965
 IR Inten    --     1.2578                 0.0865                 1.0646

                     7                      8                      9
                    A'                     A"                     A'
 Frequencies --   290.1809               350.4674               469.0473
 Red. masses --     3.6830                 2.1393                 3.0153
 Frc consts  --     0.1827                 0.1548                 0.3909
 IR Inten    --     6.2344                 0.0938                 5.5047

                    10                     11                     12
                    A'                     A"                     A"
 Frequencies --   525.8880               626.7073               659.0424
 Red. masses --     2.8639                 1.3977                 1.4852
 Frc consts  --     0.4667                 0.3234                 0.3801
 IR Inten    --    14.8451                 7.2743                 0.2639

                    13                     14                     15
                    A'                     A"                     A"
 Frequencies --   691.2145               855.8754               905.5016
 Red. masses --     3.4560                 1.8768                 1.7279
 Frc consts  --     0.9728                 0.8100                 0.8347
 IR Inten    --     0.2357                 4.6997                 5.3470

                    16                     17                     18
                    A"                     A"                     A'
 Frequencies --   913.6522               919.0819               952.4282
 Red. masses --     1.4077                 1.5953                 1.8060
 Frc consts  --     0.6924                 0.7940                 0.9653
 IR Inten    --    50.4939                14.4097                 0.0828

                    19                     20                     21
                    A"                     A'                     A"
 Frequencies --   986.3225               999.4287              1015.6601
 Red. masses --     1.1390                 2.1240                 1.1082
 Frc consts  --     0.6528                 1.2500                 0.6736
 IR Inten    --    13.9094                 0.3605                23.6622

                    22                     23                     24
                    A"                     A'                     A"
 Frequencies --  1037.2462              1048.0455              1053.9485
 Red. masses --     1.1181                 1.7051                 1.0958
 Frc consts  --     0.7088                 1.1035                 0.7172
 IR Inten    --     9.5338                 2.5831                28.9203

                    25                     26                     27
                    A'                     A'                     A'
 Frequencies --  1141.5983              1217.7130              1309.8320
 Red. masses --     1.7039                 2.2955                 1.3209
 Frc consts  --     1.3084                 2.0055                 1.3353
 IR Inten    --    10.9755                 5.9140                 0.4531

                    28                     29                     30
                    A'                     A'                     A'
 Frequencies --  1321.8980              1332.4075              1358.0164
 Red. masses --     1.4205                 1.3490                 1.2991
 Frc consts  --     1.4624                 1.4110                 1.4116
 IR Inten    --     0.3215                 1.9867                 3.5941

                    31                     32                     33
                    A'                     A'                     A'
 Frequencies --  1371.2775              1385.9711              1475.4711
 Red. masses --     1.4515                 1.3636                 1.2600
 Frc consts  --     1.6081                 1.5433                 1.6161
 IR Inten    --    18.5655                 2.0588                 0.4190

                    34                     35                     36
                    A'                     A'                     A'
 Frequencies --  1478.8211              1635.4290              1674.0974
 Red. masses --     1.2728                 4.4002                 3.7732
 Frc consts  --     1.6400                 6.9340                 6.2304
 IR Inten    --     3.1028                 7.1654                 5.0588

                    37                     38                     39
                    A'                     A'                     A'
 Frequencies --  1701.3974              1717.0509              3145.1614
 Red. masses --     3.8356                 4.0708                 1.0879
 Frc consts  --     6.5418                 7.0713                 6.3403
 IR Inten    --     6.1693                 0.1068                 3.2598

                    40                     41                     42
                    A'                     A'                     A'
 Frequencies --  3147.8030              3151.5853              3162.2293
 Red. masses --     1.0845                 1.0846                 1.0876
 Frc consts  --     6.3312                 6.3472                 6.4079
 IR Inten    --     2.9210                54.6849                16.7446

                    43                     44                     45
                    A'                     A'                     A'
 Frequencies --  3165.2838              3166.4197              3173.0634
 Red. masses --     1.0763                 1.0671                 1.0753
 Frc consts  --     6.3535                 6.3037                 6.3787
 IR Inten    --     1.2166                 5.3626                44.8805

                    46                     47                     48
                    A'                     A'                     A'
 Frequencies --  3174.4434              3249.8354              3250.1490
 Red. masses --     1.0844                 1.1157                 1.1159
 Frc consts  --     6.4383                 6.9423                 6.9451
 IR Inten    --    18.6368                15.8336                14.6242

 - Thermochemistry -
 -------------------
 Temperature   298.150 Kelvin.  Pressure   1.00000 Atm.
 Atom     1 has atomic number  6 and mass  12.00000

 Molecular mass:   106.07825 amu.
 Principal axes and moments of inertia in atomic units:
                           1         2         3
     Eigenvalues --   178.313662703.344042881.65770
           X            0.82781  -0.56101   0.00000
           Y            0.56101   0.82781   0.00000
           Z            0.00000   0.00000   1.00000
 This molecule is an asymmetric top.
 Rotational symmetry number  1.
 Rotational temperatures (Kelvin)      0.48574     0.03204     0.03006
 Rotational constants (GHZ):          10.12116     0.66760     0.62629
    1 imaginary frequencies ignored.
 Zero-point vibrational energy     399960.3 (Joules/Mol)
                                   95.59281 (Kcal/Mol)
 Warning -- explicit consideration of   9 degrees of freedom as
           vibrations may cause significant error
 Vibrational temperatures:     45.53   147.84   179.70   260.97   317.64
          (Kelvin)            417.51   504.24   674.85   756.63   901.69
                              948.21   994.50  1231.41  1302.81  1314.54
                             1322.35  1370.33  1419.10  1437.95  1461.31
                             1492.36  1507.90  1516.39  1642.50  1752.02
                             1884.55  1901.91  1917.03  1953.88  1972.96
                             1994.10  2122.87  2127.69  2353.01  2408.65
                             2447.93  2470.45  4525.18  4528.98  4534.42
                             4549.74  4554.13  4555.77  4565.32  4567.31
                             4675.78  4676.23

 Zero-point correction=                           0.152337 (Hartree/Particle)
 Thermal correction to Energy=                    0.160797
 Thermal correction to Enthalpy=                  0.161741
 Thermal correction to Gibbs Free Energy=         0.118243
 Sum of electronic and zero-point Energies=           -310.641553
 Sum of electronic and thermal Energies=              -310.633092
 Sum of electronic and thermal Enthalpies=            -310.632148
 Sum of electronic and thermal Free Energies=         -310.675646

                     E (Thermal)             CV                S
                      KCal/Mol        Cal/Mol-Kelvin    Cal/Mol-Kelvin
 Total                  100.902             30.090             91.550
 Electronic               0.000              0.000              0.000
 Translational            0.889              2.981             39.894
 Rotational               0.889              2.981             28.720
 Vibrational             99.124             24.128             22.935
 Vibration     1          0.594              1.983              5.724
 Vibration     2          0.605              1.947              3.401
 Vibration     3          0.610              1.928              3.023
 Vibration     4          0.630              1.865              2.314
 Vibration     5          0.647              1.809              1.953
 Vibration     6          0.686              1.692              1.473
 Vibration     7          0.727              1.574              1.164
 Vibration     8          0.826              1.319              0.740
 Vibration     9          0.881              1.193              0.596

 Optimization completed.
    -- Stationary point found.
 Normal termination of Gaussian 09 at Tue Mar  2 16:36:17 2021.
