 Gaussian 09, Revision C.01,
 Gaussian 09:  EM64L-G09RevC.01 23-Sep-2011

 ----------------------------------------------
 # hf/6-31g** geom=connectivity opt freq genchk
 ----------------------------------------------

 99/9=1/99;
 -------------------
 Title Card Required
 -------------------
 Charge =  1 Multiplicity = 1

 SCF Done:  E(RHF) =  -152.387946112     A.U. after   10 cycles
 Optimization completed.
    -- Stationary point found.
 Normal termination of Gaussian 09 at Tue Mar  2 15:19:00 2021.

 -------------------------------------------------------------------
 #N Geom=AllCheck Guess=TCheck SCRF=Check GenChk RHF/6-31G(d,p) Freq
 -------------------------------------------------------------------

 Structure from the checkpoint file:  dimer_cs.chk
 -------------------
 Title Card Required
 -------------------
 Charge =  1 Multiplicity = 1

                         Standard orientation:
 ---------------------------------------------------------------------
 Center     Atomic      Atomic             Coordinates (Angstroms)
 Number     Number       Type             X           Y           Z
 ---------------------------------------------------------------------
      1          8           0       -0.023985    1.194740    0.000000
      2          1           0       -0.826763    1.700289    0.000000
      3          1           0        0.728203    1.772075    0.000000
      4          8           0       -0.023985   -1.199281    0.000000
      5          1           0        0.238640   -1.658418    0.792354
      6          1           0        0.238640   -1.658418   -0.792354
      7          1           0        0.005037   -0.119195    0.000000
 ---------------------------------------------------------------------

 SCF Done:  E(RHF) =  -152.387946112     A.U. after    1 cycles

 The electronic state is 1-A'.
 Alpha  occ. eigenvalues --  -20.89904 -20.82986  -1.70091  -1.61793  -1.06475
 Alpha  occ. eigenvalues --   -1.05235  -0.98754  -0.85925  -0.82951  -0.77268
 Alpha virt. eigenvalues --   -0.03387   0.01893   0.06617   0.10374   0.26091
 Alpha virt. eigenvalues --    0.63729   0.69592   0.71734   0.78293   0.85155
 Alpha virt. eigenvalues --    0.87378   0.89427   0.99675   1.01552   1.04557

 Mulliken atomic charges:
              1
     1  O   -0.704653
     2  H    0.417488
     3  H    0.415652
     4  O   -0.585325
     5  H    0.439969
     6  H    0.439969
     7  H    0.576901
 Sum of Mulliken atomic charges =   1.00000

 Dipole moment (field-independent basis, Debye):
    X=              1.0500    Y=             -0.8366    Z=              0.0000  Tot=              1.3425
 Quadrupole moment (field-independent basis, Debye-Ang):
   XX=             -9.6444   YY=              4.5665   ZZ=             -9.7762
   XY=             -2.2507   XZ=              0.0000   YZ=              0.0000

  Exact polarizability:   8.591  -0.538  13.425   0.000   0.000   8.139
 Approx polarizability:   7.600  -0.359   9.902   0.000   0.000   7.204

                     1                      2                      3
                    A"                     A"                     A'
 Frequencies --   136.7458               215.3079               365.7790
 Red. masses --     1.1445                 1.0676                 2.2277
 Frc consts  --     0.0126                 0.0292                 0.1756
 IR Inten    --   179.4406               266.3028               284.9052
 Raman Activ --     2.4836                 3.2091                 0.5070

                     4                      5                      6
                    A'                     A"                     A'
 Frequencies --   472.8571               495.9825               511.8498
 Red. masses --     1.2222                 1.0373                 1.2804
 Frc consts  --     0.1610                 0.1503                 0.1976
 IR Inten    --   359.8696                18.8712                82.5137
 Raman Activ --     1.0839                 1.4566                 0.1697

                     7                      8                      9
                    A'                     A'                     A"
 Frequencies --  1409.1275              1437.5098              1749.1060
 Red. masses --     1.0864                 1.0767                 1.0584
 Frc consts  --     1.2710                 1.3108                 1.9077
 IR Inten    --   890.6726               624.5893               137.6716
 Raman Activ --    10.5513                 1.1015                 0.1918

                    10                     11                     12
                    A'                     A'                     A'
 Frequencies --  1794.0367              1980.1107              4023.9709
 Red. masses --     1.0883                 1.1340                 1.0427
 Frc consts  --     2.0638                 2.6195                 9.9472
 IR Inten    --    34.2403              2368.7916               240.1678
 Raman Activ --     3.0590                 8.0407                35.6159

                    13                     14                     15
                    A'                     A"                     A'
 Frequencies --  4087.7294              4128.4222              4193.6593
 Red. masses --     1.0440                 1.0903                 1.0876
 Frc consts  --    10.2779                10.9486                11.2700
 IR Inten    --   108.0151               436.5393               325.1495
 Raman Activ --    56.3753                18.7421                26.1016

 - Thermochemistry -
 -------------------
 Temperature   298.150 Kelvin.  Pressure   1.00000 Atm.
 Atom     1 has atomic number  8 and mass  15.99491

 Molecular mass:    37.02895 amu.
 Principal axes and moments of inertia in atomic units:
                           1         2         3
     Eigenvalues --     9.29635 209.81102 210.06918
           X           -0.01627   0.99987   0.00000
           Y            0.99987   0.01627   0.00000
           Z            0.00000   0.00000   1.00000
 This molecule is an asymmetric top.
 Rotational symmetry number  1.
 Rotational temperatures (Kelvin)      9.31697     0.41282     0.41231
 Rotational constants (GHZ):         194.13437     8.60175     8.59118
 Zero-point vibrational energy     161509.0 (Joules/Mol)
                                   38.60157 (Kcal/Mol)
 Warning -- explicit consideration of   6 degrees of freedom as
           vibrations may cause significant error
 Vibrational temperatures:    196.75   309.78   526.27   680.34   713.61
          (Kelvin)            736.44  2027.42  2068.25  2516.57  2581.22
                             2848.93  5789.59  5881.32  5939.87  6033.73

 Zero-point correction=                           0.061516 (Hartree/Particle)
 Thermal correction to Energy=                    0.066601
 Thermal correction to Enthalpy=                  0.067545
 Thermal correction to Gibbs Free Energy=         0.036465
 Sum of electronic and zero-point Energies=           -152.326431
 Sum of electronic and thermal Energies=              -152.321345
 Sum of electronic and thermal Enthalpies=            -152.320401
 Sum of electronic and thermal Free Energies=         -152.351481

                     E (Thermal)             CV                S
                      KCal/Mol        Cal/Mol-Kelvin    Cal/Mol-Kelvin
 Total                   41.793             15.297             65.413
 Electronic               0.000              0.000              0.000
 Translational            0.889              2.981             36.757
 Rotational               0.889              2.981             20.644
 Vibrational             40.015              9.335              8.013
 Vibration     1          0.614              1.917              2.849
 Vibration     2          0.645              1.818              1.998
 Vibration     3          0.739              1.543              1.097
 Vibration     4          0.830              1.310              0.730
 Vibration     5          0.852              1.259              0.668
 Vibration     6          0.867              1.224              0.629

 Optimization completed.
    -- Stationary point found.
 Normal termination of Gaussian 09 at Tue Mar  2 15:19:02 2021.
