 Gaussian 09, Revision C.01,
 Gaussian 09:  EM64L-G09RevC.01 23-Sep-2011

 -------------------------------------------------
 # b3lyp/6-31g** geom=connectivity opt freq genchk
 -------------------------------------------------

 99/9=1/99;
 -------------------
 Title Card Required
 -------------------
 Charge =  1 Multiplicity = 1

 SCF Done:  E(RB3LYP) =  -153.188762633     A.U. after   10 cycles
 SCF Done:  E(RB3LYP) =  -153.190606034     A.U. after    9 cycles
 SCF Done:  E(RB3LYP) =  -153.190839064     A.U. after   10 cycles
 SCF Done:  E(RB3LYP) =  -153.190394405     A.U. after   12 cycles
 SCF Done:  E(RB3LYP) =  -153.190923967     A.U. after   10 cycles
 SCF Done:  E(RB3LYP) =  -153.190974722     A.U. after   11 cycles
 SCF Done:  E(RB3LYP) =  -153.191096020     A.U. after   11 cycles
 SCF Done:  E(RB3LYP) =  -153.191233669     A.U. after    9 cycles
 SCF Done:  E(RB3LYP) =  -153.191372992     A.U. after   10 cycles
 SCF Done:  E(RB3LYP) =  -153.191598408     A.U. after   11 cycles
 SCF Done:  E(RB3LYP) =  -153.191704162     A.U. after   12 cycles
 SCF Done:  E(RB3LYP) =  -153.191724138     A.U. after   11 cycles
 SCF Done:  E(RB3LYP) =  -153.191773220     A.U. after   11 cycles
 SCF Done:  E(RB3LYP) =  -153.191818003     A.U. after    9 cycles
 SCF Done:  E(RB3LYP) =  -153.191837406     A.U. after    8 cycles
 SCF Done:  E(RB3LYP) =  -153.191845388     A.U. after    8 cycles
 SCF Done:  E(RB3LYP) =  -153.191846223     A.U. after    7 cycles
 SCF Done:  E(RB3LYP) =  -153.191846462     A.U. after    7 cycles
 Optimization completed.
    -- Stationary point found.
 Normal termination of Gaussian 09 at Tue Mar  2 15:43:26 2021.

 ----------------------------------------------------------------------
 #N Geom=AllCheck Guess=TCheck SCRF=Check GenChk RB3LYP/6-31G(d,p) Freq
 ----------------------------------------------------------------------

 Structure from the checkpoint file:  dimer_cs.chk
 -------------------
 Title Card Required
 -------------------
 Charge =  1 Multiplicity = 1

                         Standard orientation:
 ---------------------------------------------------------------------
 Center     Atomic      Atomic             Coordinates (Angstroms)
 Number     Number       Type             X           Y           Z
 ---------------------------------------------------------------------
      1          8           0       -1.196965   -0.034538   -0.054993
      2          1           0       -1.658312   -0.474134    0.677965
      3          1           0       -1.705298    0.737774   -0.350403
      4          8           0        1.196906   -0.034481    0.055002
      5          1           0        1.705737    0.737626    0.350195
      6          1           0        1.658195   -0.474549   -0.677762
      7          1           0        0.000153    0.025435   -0.000070
 ---------------------------------------------------------------------

 SCF Done:  E(RB3LYP) =  -153.191846462     A.U. after    1 cycles

 The electronic state is 1-A.
 Alpha  occ. eigenvalues --  -19.44742 -19.44732  -1.31971  -1.29201  -0.83623
 Alpha  occ. eigenvalues --   -0.81694  -0.81606  -0.67214  -0.60754  -0.59835
 Alpha virt. eigenvalues --   -0.18271  -0.14425  -0.08015  -0.07698   0.06145
 Alpha virt. eigenvalues --    0.40452   0.45954   0.47306   0.55051   0.55777
 Alpha virt. eigenvalues --    0.60343   0.61594   0.72963   0.73195   0.77602

 Mulliken atomic charges:
              1
     1  O   -0.552387
     2  H    0.404712
     3  H    0.402500
     4  O   -0.552275
     5  H    0.402549
     6  H    0.404741
     7  H    0.490160
 Sum of Mulliken atomic charges =   1.00000

 Dipole moment (field-independent basis, Debye):
    X=              0.0023    Y=              1.3733    Z=             -0.0001  Tot=              1.3733
 Quadrupole moment (field-independent basis, Debye-Ang):
   XX=              3.6894   YY=             -9.1910   ZZ=            -10.2556
   XY=             -0.0011   XZ=             -2.9065   YZ=              0.0000

  Exact polarizability:  15.560   0.000   9.611  -0.911   0.000   8.763
 Approx polarizability:  16.726   0.000  11.894  -1.049   0.000  10.753

                     1                      2                      3
                     A                      A                      A
 Frequencies --   164.3020               379.6305               422.1475
 Red. masses --     1.0312                 1.1247                 1.1504
 Frc consts  --     0.0164                 0.0955                 0.1208
 IR Inten    --    29.7347               317.3536               262.9115

                     4                      5                      6
                     A                      A                      A
 Frequencies --   482.8427               511.3527               618.3452
 Red. masses --     1.1223                 1.1063                 4.8284
 Frc consts  --     0.1542                 0.1704                 1.0877
 IR Inten    --     9.5225                 7.9059                 0.5060

                     7                      8                      9
                     A                      A                      A
 Frequencies --  1086.0829              1450.7750              1540.7577
 Red. masses --     1.0220                 1.0624                 1.0636
 Frc consts  --     0.7103                 1.3175                 1.4876
 IR Inten    --  2450.8413               347.5702               134.5771

                    10                     11                     12
                     A                      A                      A
 Frequencies --  1690.9929              1769.4375              3750.8800
 Red. masses --     1.0788                 1.0981                 1.0414
 Frc consts  --     1.8176                 2.0257                 8.6323
 IR Inten    --     4.0745              1358.5302               229.2852

                    13                     14                     15
                     A                      A                      A
 Frequencies --  3759.8667              3853.5054              3854.1449
 Red. masses --     1.0444                 1.0870                 1.0871
 Frc consts  --     8.6985                 9.5103                 9.5139
 IR Inten    --     7.8427               249.6729               303.8091

 - Thermochemistry -
 -------------------
 Temperature   298.150 Kelvin.  Pressure   1.00000 Atm.
 Atom     1 has atomic number  8 and mass  15.99491

 Molecular mass:    37.02895 amu.
 Principal axes and moments of inertia in atomic units:
                           1         2         3
     Eigenvalues --    10.11291 208.93022 210.10969
           X            0.99983  -0.00001  -0.01865
           Y            0.00001   1.00000  -0.00004
           Z            0.01865   0.00004   0.99983
 This molecule is an asymmetric top.
 Rotational symmetry number  1.
 Rotational temperatures (Kelvin)      8.56467     0.41456     0.41223
 Rotational constants (GHZ):         178.45906     8.63801     8.58952
 Zero-point vibrational energy     151537.3 (Joules/Mol)
                                   36.21829 (Kcal/Mol)
 Warning -- explicit consideration of   6 degrees of freedom as
           vibrations may cause significant error
 Vibrational temperatures:    236.39   546.20   607.38   694.70   735.72
          (Kelvin)            889.66  1562.63  2087.34  2216.80  2432.96
                             2545.82  5396.67  5409.60  5544.33  5545.25

 Zero-point correction=                           0.057718 (Hartree/Particle)
 Thermal correction to Energy=                    0.062430
 Thermal correction to Enthalpy=                  0.063375
 Thermal correction to Gibbs Free Energy=         0.033082
 Sum of electronic and zero-point Energies=           -153.134129
 Sum of electronic and thermal Energies=              -153.129416
 Sum of electronic and thermal Enthalpies=            -153.128472
 Sum of electronic and thermal Free Energies=         -153.158764

                     E (Thermal)             CV                S
                      KCal/Mol        Cal/Mol-Kelvin    Cal/Mol-Kelvin
 Total                   39.176             14.802             63.756
 Electronic               0.000              0.000              0.000
 Translational            0.889              2.981             36.757
 Rotational               0.889              2.981             20.723
 Vibrational             37.398              8.840              6.276
 Vibration     1          0.623              1.886              2.500
 Vibration     2          0.750              1.514              1.041
 Vibration     3          0.784              1.422              0.885
 Vibration     4          0.839              1.288              0.702
 Vibration     5          0.866              1.225              0.630
 Vibration     6          0.978              0.993              0.419

 Optimization completed.
    -- Stationary point found.
 Normal termination of Gaussian 09 at Tue Mar  2 15:43:40 2021.
