 Gaussian 09, Revision C.01,
 Gaussian 09:  EM64L-G09RevC.01 23-Sep-2011

 ---------------------------------------
 # hf/6-31g** geom=connectivity opt freq
 ---------------------------------------

 99/9=1/99;
 -------------------
 Title Card Required
 -------------------
 Charge =  1 Multiplicity = 1

 SCF Done:  E(RHF) =  -152.176518091     A.U. after   13 cycles
 SCF Done:  E(RHF) =  -152.239972599     A.U. after   12 cycles
 SCF Done:  E(RHF) =  -152.243662267     A.U. after   13 cycles
 SCF Done:  E(RHF) =  -152.222474061     A.U. after   12 cycles
 SCF Done:  E(RHF) =  -152.314453389     A.U. after   12 cycles
 SCF Done:  E(RHF) =  -152.348235726     A.U. after   10 cycles
 SCF Done:  E(RHF) =  -152.339264745     A.U. after   12 cycles
 SCF Done:  E(RHF) =  -152.372359519     A.U. after   12 cycles
 SCF Done:  E(RHF) =  -152.378121671     A.U. after   10 cycles
 SCF Done:  E(RHF) =  -152.384306713     A.U. after   11 cycles
 SCF Done:  E(RHF) =  -152.387887040     A.U. after   10 cycles
 SCF Done:  E(RHF) =  -152.387917807     A.U. after   10 cycles
 SCF Done:  E(RHF) =  -152.387931805     A.U. after   10 cycles
 SCF Done:  E(RHF) =  -152.387941281     A.U. after   11 cycles
 SCF Done:  E(RHF) =  -152.387943106     A.U. after    9 cycles
 SCF Done:  E(RHF) =  -152.387943982     A.U. after    8 cycles
 SCF Done:  E(RHF) =  -152.387944624     A.U. after    8 cycles
 SCF Done:  E(RHF) =  -152.387945946     A.U. after   10 cycles
 SCF Done:  E(RHF) =  -152.387946458     A.U. after   10 cycles
 Optimization completed.
    -- Stationary point found.
 Normal termination of Gaussian 09 at Mon Mar  1 12:38:15 2021.

 -------------------------------------------------------------------
 #N Geom=AllCheck Guess=TCheck SCRF=Check GenChk RHF/6-31G(d,p) Freq
 -------------------------------------------------------------------

 Structure from the checkpoint file:  dimer.chk
 -------------------
 Title Card Required
 -------------------
 Charge =  1 Multiplicity = 1

                         Standard orientation:
 ---------------------------------------------------------------------
 Center     Atomic      Atomic             Coordinates (Angstroms)
 Number     Number       Type             X           Y           Z
 ---------------------------------------------------------------------
      1          8           0        1.194953    0.008607    0.000570
      2          1           0        1.722082   -0.779473   -0.032608
      3          1           0        1.751682    0.775561    0.031158
      4          8           0       -1.198188   -0.056232   -0.002440
      5          1           0       -1.664276    0.225446   -0.783936
      6          1           0       -1.664324    0.157461    0.800293
      7          1           0       -0.119286    0.002010    0.000054
 ---------------------------------------------------------------------

 SCF Done:  E(RHF) =  -152.387946458     A.U. after    1 cycles

 The electronic state is 1-A.
 Alpha  occ. eigenvalues --  -20.89896 -20.82985  -1.70087  -1.61792  -1.06469
 Alpha  occ. eigenvalues --   -1.05265  -0.98753  -0.85903  -0.82955  -0.77267
 Alpha virt. eigenvalues --   -0.03383   0.01894   0.06626   0.10375   0.26094
 Alpha virt. eigenvalues --    0.63732   0.69637   0.71739   0.78243   0.85156
 Alpha virt. eigenvalues --    0.87380   0.89436   0.99679   1.01558   1.04552

 Mulliken atomic charges:
              1
     1  O   -0.704653
     2  H    0.417473
     3  H    0.415659
     4  O   -0.585405
     5  H    0.440001
     6  H    0.440017
     7  H    0.576908
 Sum of Mulliken atomic charges =   1.00000

 Dipole moment (field-independent basis, Debye):
    X=             -0.8657    Y=              1.0176    Z=              0.0400  Tot=              1.3366
 Quadrupole moment (field-independent basis, Debye-Ang):
   XX=              4.6807   YY=             -9.7599   ZZ=             -9.7712
   XY=             -1.8427   XZ=             -0.0856   YZ=             -0.0065

  Exact polarizability:  13.449  -0.401   8.561  -0.019   0.013   8.139
 Approx polarizability:   9.918  -0.292   7.578  -0.014   0.012   7.204

                     1                      2                      3
                     A                      A                      A
 Frequencies --   136.3523               215.1201               362.0268
 Red. masses --     1.1438                 1.0682                 2.1312
 Frc consts  --     0.0125                 0.0291                 0.1646
 IR Inten    --   177.8140               267.4809               283.7131
 Raman Activ --     2.4916                 3.2003                 0.5482

                     4                      5                      6
                     A                      A                      A
 Frequencies --   470.1155               494.8694               508.7445
 Red. masses --     1.2719                 1.0373                 1.2618
 Frc consts  --     0.1656                 0.1497                 0.1924
 IR Inten    --   385.6082                19.1102                60.2704
 Raman Activ --     1.0606                 1.4584                 0.1439

                     7                      8                      9
                     A                      A                      A
 Frequencies --  1408.1729              1437.0552              1749.4122
 Red. masses --     1.0862                 1.0764                 1.0584
 Frc consts  --     1.2690                 1.3097                 1.9084
 IR Inten    --   889.3498               620.6675               137.7520
 Raman Activ --    10.5473                 1.0912                 0.1894

                    10                     11                     12
                     A                      A                      A
 Frequencies --  1793.5541              1979.7212              4025.5895
 Red. masses --     1.0887                 1.1340                 1.0426
 Frc consts  --     2.0635                 2.6186                 9.9544
 IR Inten    --    32.1175              2374.3428               240.8270
 Raman Activ --     3.0248                 8.0661                35.4693

                    13                     14                     15
                     A                      A                      A
 Frequencies --  4087.7369              4130.8812              4193.6518
 Red. masses --     1.0440                 1.0904                 1.0876
 Frc consts  --    10.2780                10.9628                11.2700
 IR Inten    --   107.1847               437.9961               325.1396
 Raman Activ --    56.4829                18.6834                26.1019

 - Thermochemistry -
 -------------------
 Temperature   298.150 Kelvin.  Pressure   1.00000 Atm.
 Atom     1 has atomic number  8 and mass  15.99491

 Molecular mass:    37.02895 amu.
 Principal axes and moments of inertia in atomic units:
                           1         2         3
     Eigenvalues --     9.29505 209.81744 210.06363
           X            0.99994  -0.01097  -0.00040
           Y            0.01097   0.99989  -0.00962
           Z            0.00051   0.00961   0.99995
 This molecule is an asymmetric top.
 Rotational symmetry number  1.
 Rotational temperatures (Kelvin)      9.31827     0.41281     0.41232
 Rotational constants (GHZ):         194.16149     8.60148     8.59140
 Zero-point vibrational energy     161454.0 (Joules/Mol)
                                   38.58844 (Kcal/Mol)
 Warning -- explicit consideration of   6 degrees of freedom as
           vibrations may cause significant error
 Vibrational temperatures:    196.18   309.51   520.88   676.39   712.01
          (Kelvin)            731.97  2026.04  2067.60  2517.01  2580.52
                             2848.37  5791.92  5881.33  5943.41  6033.72

 Zero-point correction=                           0.061495 (Hartree/Particle)
 Thermal correction to Energy=                    0.066590
 Thermal correction to Enthalpy=                  0.067534
 Thermal correction to Gibbs Free Energy=         0.036435
 Sum of electronic and zero-point Energies=           -152.326452
 Sum of electronic and thermal Energies=              -152.321356
 Sum of electronic and thermal Enthalpies=            -152.320412
 Sum of electronic and thermal Free Energies=         -152.351511

                     E (Thermal)             CV                S
                      KCal/Mol        Cal/Mol-Kelvin    Cal/Mol-Kelvin
 Total                   41.786             15.321             65.454
 Electronic               0.000              0.000              0.000
 Translational            0.889              2.981             36.757
 Rotational               0.889              2.981             20.643
 Vibrational             40.009              9.359              8.054
 Vibration     1          0.614              1.917              2.854
 Vibration     2          0.645              1.818              2.000
 Vibration     3          0.736              1.550              1.113
 Vibration     4          0.827              1.316              0.737
 Vibration     5          0.850              1.261              0.671
 Vibration     6          0.864              1.231              0.637

 Optimization completed.
    -- Stationary point found.
 Normal termination of Gaussian 09 at Mon Mar  1 12:38:17 2021.
