 Gaussian 09, Revision C.01,
 Gaussian 09:  EM64L-G09RevC.01 23-Sep-2011

 ------------------------------------------
 # b3lyp/6-31g** geom=connectivity opt freq
 ------------------------------------------

 99/9=1/99;
 -------------------
 Title Card Required
 -------------------
 Charge =  1 Multiplicity = 1

 SCF Done:  E(RB3LYP) =  -152.998681242     A.U. after   15 cycles
 SCF Done:  E(RB3LYP) =  -153.050298847     A.U. after   12 cycles
 SCF Done:  E(RB3LYP) =  -153.091739542     A.U. after   12 cycles
 SCF Done:  E(RB3LYP) =  -153.140515935     A.U. after   11 cycles
 SCF Done:  E(RB3LYP) =  -153.166125277     A.U. after   11 cycles
 SCF Done:  E(RB3LYP) =  -153.170007195     A.U. after   11 cycles
 SCF Done:  E(RB3LYP) =  -153.181751395     A.U. after   11 cycles
 SCF Done:  E(RB3LYP) =  -153.185765050     A.U. after   11 cycles
 SCF Done:  E(RB3LYP) =  -153.188994641     A.U. after    9 cycles
 SCF Done:  E(RB3LYP) =  -153.189963357     A.U. after   11 cycles
 SCF Done:  E(RB3LYP) =  -153.191580147     A.U. after   11 cycles
 SCF Done:  E(RB3LYP) =  -153.191648905     A.U. after    8 cycles
 SCF Done:  E(RB3LYP) =  -153.191747667     A.U. after   11 cycles
 SCF Done:  E(RB3LYP) =  -153.191795327     A.U. after    9 cycles
 SCF Done:  E(RB3LYP) =  -153.191825850     A.U. after   10 cycles
 SCF Done:  E(RB3LYP) =  -153.191840767     A.U. after    9 cycles
 SCF Done:  E(RB3LYP) =  -153.191844271     A.U. after    8 cycles
 SCF Done:  E(RB3LYP) =  -153.191845305     A.U. after    7 cycles
 SCF Done:  E(RB3LYP) =  -153.191846428     A.U. after    7 cycles
 Optimization completed.
    -- Stationary point found.
 Normal termination of Gaussian 09 at Mon Mar  1 12:44:50 2021.

 ----------------------------------------------------------------------
 #N Geom=AllCheck Guess=TCheck SCRF=Check GenChk RB3LYP/6-31G(d,p) Freq
 ----------------------------------------------------------------------

 Structure from the checkpoint file:  dimer.chk
 -------------------
 Title Card Required
 -------------------
 Charge =  1 Multiplicity = 1

                         Standard orientation:
 ---------------------------------------------------------------------
 Center     Atomic      Atomic             Coordinates (Angstroms)
 Number     Number       Type             X           Y           Z
 ---------------------------------------------------------------------
      1          8           0        1.196998   -0.034581    0.054923
      2          1           0        1.658522   -0.473284   -0.678508
      3          1           0        1.705622    0.737193    0.351300
      4          8           0       -1.197007   -0.034444   -0.054927
      5          1           0       -1.705808    0.737504   -0.350610
      6          1           0       -1.658628   -0.474440    0.677587
      7          1           0        0.000363    0.025227    0.000258
 ---------------------------------------------------------------------

 SCF Done:  E(RB3LYP) =  -153.191846428     A.U. after    1 cycles

 The electronic state is 1-A.
 Alpha  occ. eigenvalues --  -19.44746 -19.44726  -1.31968  -1.29200  -0.83623
 Alpha  occ. eigenvalues --   -0.81691  -0.81603  -0.67216  -0.60752  -0.59833
 Alpha virt. eigenvalues --   -0.18270  -0.14425  -0.08014  -0.07698   0.06143
 Alpha virt. eigenvalues --    0.40450   0.45960   0.47298   0.55056   0.55785
 Alpha virt. eigenvalues --    0.60347   0.61588   0.72973   0.73196   0.77592

 Mulliken atomic charges:
              1
     1  O   -0.552195
     2  H    0.404758
     3  H    0.402552
     4  O   -0.552529
     5  H    0.402505
     6  H    0.404674
     7  H    0.490235
 Sum of Mulliken atomic charges =   1.00000

 Dipole moment (field-independent basis, Debye):
    X=              0.0028    Y=              1.3736    Z=             -0.0001  Tot=              1.3736
 Quadrupole moment (field-independent basis, Debye-Ang):
   XX=              3.6962   YY=             -9.1966   ZZ=            -10.2516
   XY=              0.0035   XZ=             -2.9029   YZ=              0.0003

  Exact polarizability:  15.563   0.001   9.606  -0.910   0.000   8.766
 Approx polarizability:  16.729   0.001  11.888  -1.048  -0.001  10.757

                     1                      2                      3
                     A                      A                      A
 Frequencies --   164.0687               379.5138               422.1734
 Red. masses --     1.0311                 1.1251                 1.1510
 Frc consts  --     0.0164                 0.0955                 0.1209
 IR Inten    --    29.8196               317.1803               263.6633

                     4                      5                      6
                     A                      A                      A
 Frequencies --   482.8253               511.0418               618.2005
 Red. masses --     1.1218                 1.1060                 4.8290
 Frc consts  --     0.1541                 0.1702                 1.0873
 IR Inten    --     9.1209                 7.8468                 0.5263

                     7                      8                      9
                     A                      A                      A
 Frequencies --  1085.2865              1451.1770              1540.3135
 Red. masses --     1.0220                 1.0624                 1.0635
 Frc consts  --     0.7093                 1.3182                 1.4867
 IR Inten    --  2452.3498               347.2443               134.7603

                    10                     11                     12
                     A                      A                      A
 Frequencies --  1690.9426              1769.4851              3750.9486
 Red. masses --     1.0789                 1.0981                 1.0414
 Frc consts  --     1.8176                 2.0258                 8.6326
 IR Inten    --     3.9806              1357.4344               229.2470

                    13                     14                     15
                     A                      A                      A
 Frequencies --  3759.9299              3853.5596              3854.0161
 Red. masses --     1.0444                 1.0870                 1.0871
 Frc consts  --     8.6988                 9.5105                 9.5134
 IR Inten    --     7.9556               239.7183               313.7449

 - Thermochemistry -
 -------------------
 Temperature   298.150 Kelvin.  Pressure   1.00000 Atm.
 Atom     1 has atomic number  8 and mass  15.99491

 Molecular mass:    37.02895 amu.
 Principal axes and moments of inertia in atomic units:
                           1         2         3
     Eigenvalues --    10.11027 208.96515 210.13322
           X            0.99983   0.00003  -0.01862
           Y           -0.00002   1.00000   0.00011
           Z            0.01862  -0.00011   0.99983
 This molecule is an asymmetric top.
 Rotational symmetry number  1.
 Rotational temperatures (Kelvin)      8.56691     0.41449     0.41219
 Rotational constants (GHZ):         178.50572     8.63657     8.58856
 Zero-point vibrational energy     151527.9 (Joules/Mol)
                                   36.21603 (Kcal/Mol)
 Warning -- explicit consideration of   6 degrees of freedom as
           vibrations may cause significant error
 Vibrational temperatures:    236.06   546.04   607.41   694.68   735.27
          (Kelvin)            889.45  1561.48  2087.92  2216.16  2432.89
                             2545.89  5396.77  5409.69  5544.41  5545.06

 Zero-point correction=                           0.057714 (Hartree/Particle)
 Thermal correction to Energy=                    0.062428
 Thermal correction to Enthalpy=                  0.063372
 Thermal correction to Gibbs Free Energy=         0.033077
 Sum of electronic and zero-point Energies=           -153.134133
 Sum of electronic and thermal Energies=              -153.129419
 Sum of electronic and thermal Enthalpies=            -153.128475
 Sum of electronic and thermal Free Energies=         -153.158769

                     E (Thermal)             CV                S
                      KCal/Mol        Cal/Mol-Kelvin    Cal/Mol-Kelvin
 Total                   39.174             14.804             63.760
 Electronic               0.000              0.000              0.000
 Translational            0.889              2.981             36.757
 Rotational               0.889              2.981             20.723
 Vibrational             37.397              8.842              6.281
 Vibration     1          0.623              1.887              2.502
 Vibration     2          0.750              1.514              1.041
 Vibration     3          0.785              1.422              0.885
 Vibration     4          0.839              1.288              0.702
 Vibration     5          0.866              1.226              0.631
 Vibration     6          0.978              0.993              0.419

 Normal termination of Gaussian 09 at Mon Mar  1 12:45:02 2021.
