 Gaussian 09, Revision C.01,
 Gaussian 09:  EM64L-G09RevC.01 23-Sep-2011

 ---------------------------------------
 # hf/6-31g** geom=connectivity opt freq
 ---------------------------------------

 99/9=1/99;
 -------------------
 Title Card Required
 -------------------
 Charge =  1 Multiplicity = 1

 SCF Done:  E(RHF) =  -76.3092069797     A.U. after    9 cycles
 SCF Done:  E(RHF) =  -76.3103213699     A.U. after    8 cycles
 SCF Done:  E(RHF) =  -76.3103238324     A.U. after    7 cycles
 SCF Done:  E(RHF) =  -76.3103248051     A.U. after    7 cycles
 Optimization completed.
    -- Stationary point found.
 Normal termination of Gaussian 09 at Mon Mar  1 17:17:54 2021.

 -------------------------------------------------------------------
 #N Geom=AllCheck Guess=TCheck SCRF=Check GenChk RHF/6-31G(d,p) Freq
 -------------------------------------------------------------------

 Structure from the checkpoint file:  h3o_c3v.chk
 -------------------
 Title Card Required
 -------------------
 Charge =  1 Multiplicity = 1

                         Standard orientation:
 ---------------------------------------------------------------------
 Center     Atomic      Atomic             Coordinates (Angstroms)
 Number     Number       Type             X           Y           Z
 ---------------------------------------------------------------------
      1          8           0        0.000000    0.000000    0.061172
      2          1           0        0.000000    0.934703   -0.163125
      3          1           0        0.809477   -0.467352   -0.163125
      4          1           0       -0.809477   -0.467352   -0.163125
 ---------------------------------------------------------------------

 SCF Done:  E(RHF) =  -76.3103248051     A.U. after    1 cycles

 The electronic state is 1-A1.
 Alpha  occ. eigenvalues --  -21.01191  -1.80921  -1.14907  -1.14907  -0.95003
 Alpha virt. eigenvalues --   -0.10804   0.00409   0.00409   0.64676   0.64676
 Alpha virt. eigenvalues --    0.70564   0.76253   0.89630   0.89630   1.09786
 Alpha virt. eigenvalues --    1.34325   1.34325   1.98626   1.99917   2.21553

 Mulliken atomic charges:
              1
     1  O   -0.438670
     2  H    0.479557
     3  H    0.479557
     4  H    0.479557
 Sum of Mulliken atomic charges =   1.00000

 Dipole moment (field-independent basis, Debye):
    X=              0.0000    Y=              0.0000    Z=             -1.3621  Tot=              1.3621
 Quadrupole moment (field-independent basis, Debye-Ang):
   XX=             -2.3386   YY=             -2.3386   ZZ=             -6.2511
   XY=              0.0000   XZ=              0.0000   YZ=              0.0000

  Exact polarizability:   5.126   0.000   5.126   0.000   0.000   2.939
 Approx polarizability:   4.377   0.000   4.377   0.000   0.000   2.624

                     1                      2                      3
                    A1                      E                      E
 Frequencies --   781.9297              1788.5494              1788.5494
 Red. masses --     1.1738                 1.0695                 1.0695
 Frc consts  --     0.4228                 2.0158                 2.0158
 IR Inten    --   628.7861               141.1348               141.1348
 Raman Activ --     0.6008                 1.9056                 1.9056

                     4                      5                      6
                    A1                      E                      E
 Frequencies --  3858.1559              3994.2203              3994.2203
 Red. masses --     1.0155                 1.0932                 1.0932
 Frc consts  --     8.9062                10.2760                10.2760
 IR Inten    --    46.0406               630.1619               630.1619
 Raman Activ --    38.6147                10.7248                10.7248

 - Thermochemistry -
 -------------------
 Temperature   298.150 Kelvin.  Pressure   1.00000 Atm.
 Atom     1 has atomic number  8 and mass  15.99491

 Molecular mass:    19.01839 amu.
 Principal axes and moments of inertia in atomic units:
                           1         2         3
     Eigenvalues --     5.17336   5.17336   9.43304
           X           -0.22975   0.97325   0.00000
           Y            0.97325   0.22975   0.00000
           Z            0.00000   0.00000   1.00000
 This molecule is an oblate symmetric top.
 Rotational symmetry number  3.
 Rotational temperatures (Kelvin)     16.74228    16.74228     9.18196
 Rotational constants (GHZ):         348.85298   348.85298   191.32122
 Zero-point vibrational energy      96931.2 (Joules/Mol)
                                   23.16710 (Kcal/Mol)
 Vibrational temperatures:   1125.02  2573.32  2573.32  5551.02  5746.79
          (Kelvin)           5746.79

 Zero-point correction=                           0.036919 (Hartree/Particle)
 Thermal correction to Energy=                    0.039838
 Thermal correction to Enthalpy=                  0.040783
 Thermal correction to Gibbs Free Energy=         0.018872
 Sum of electronic and zero-point Energies=            -76.273406
 Sum of electronic and thermal Energies=               -76.270486
 Sum of electronic and thermal Enthalpies=             -76.269542
 Sum of electronic and thermal Free Energies=          -76.291453

                     E (Thermal)             CV                S
                      KCal/Mol        Cal/Mol-Kelvin    Cal/Mol-Kelvin
 Total                   24.999              6.695             46.116
 Electronic               0.000              0.000              0.000
 Translational            0.889              2.981             34.771
 Rotational               0.889              2.981             11.116
 Vibrational             23.222              0.734              0.229

 Optimization completed.
    -- Stationary point found.
 Normal termination of Gaussian 09 at Mon Mar  1 17:17:55 2021.
