 Gaussian 09, Revision C.01,
 Gaussian 09:  EM64L-G09RevC.01 23-Sep-2011

 ------------------------------------------
 # b3lyp/6-31g** geom=connectivity opt freq
 ------------------------------------------

 99/9=1/99;
 -------------------
 Title Card Required
 -------------------
 Charge =  1 Multiplicity = 1

 SCF Done:  E(RB3LYP) =  -76.7014913668     A.U. after    9 cycles
 SCF Done:  E(RB3LYP) =  -76.7055816772     A.U. after    9 cycles
 SCF Done:  E(RB3LYP) =  -76.7056198489     A.U. after    7 cycles
 SCF Done:  E(RB3LYP) =  -76.7056336814     A.U. after    6 cycles
 SCF Done:  E(RB3LYP) =  -76.7056363308     A.U. after    6 cycles
 Optimization completed.
    -- Stationary point found.
 Normal termination of Gaussian 09 at Mon Mar  1 17:28:16 2021.

 ----------------------------------------------------------------------
 #N Geom=AllCheck Guess=TCheck SCRF=Check GenChk RB3LYP/6-31G(d,p) Freq
 ----------------------------------------------------------------------

 Structure from the checkpoint file:  h3o_c3v.chk
 -------------------
 Title Card Required
 -------------------
 Charge =  1 Multiplicity = 1

                         Standard orientation:
 ---------------------------------------------------------------------
 Center     Atomic      Atomic             Coordinates (Angstroms)
 Number     Number       Type             X           Y           Z
 ---------------------------------------------------------------------
      1          8           0        0.000000    0.000000    0.070308
      2          1           0        0.000000    0.947660   -0.187489
      3          1           0        0.820697   -0.473830   -0.187489
      4          1           0       -0.820697   -0.473830   -0.187489
 ---------------------------------------------------------------------

 SCF Done:  E(RB3LYP) =  -76.7056363308     A.U. after    1 cycles

 The electronic state is 1-A1.
 Alpha  occ. eigenvalues --  -19.59079  -1.45006  -0.93865  -0.93865  -0.73808
 Alpha virt. eigenvalues --   -0.26465  -0.16221  -0.16221   0.40714   0.40714
 Alpha virt. eigenvalues --    0.44719   0.50514   0.62852   0.62852   0.87448
 Alpha virt. eigenvalues --    1.06791   1.06791   1.64300   1.70086   1.89589

 Mulliken atomic charges:
              1
     1  O   -0.382051
     2  H    0.460684
     3  H    0.460684
     4  H    0.460684
 Sum of Mulliken atomic charges =   1.00000

 Dipole moment (field-independent basis, Debye):
    X=              0.0000    Y=              0.0000    Z=             -1.4951  Tot=              1.4951
 Quadrupole moment (field-independent basis, Debye-Ang):
   XX=             -2.3958   YY=             -2.3958   ZZ=             -6.1818
   XY=              0.0000   XZ=              0.0000   YZ=              0.0000

  Exact polarizability:   5.613   0.000   5.613   0.000   0.000   3.115
 Approx polarizability:   6.806   0.000   6.806   0.000   0.000   3.618

                     1                      2                      3
                    A1                      E                      E
 Frequencies --   784.2404              1668.9851              1668.9852
 Red. masses --     1.1722                 1.0682                 1.0682
 Frc consts  --     0.4248                 1.7531                 1.7531
 IR Inten    --   549.2742               121.9015               121.9002

                     4                      5                      6
                    A1                      E                      E
 Frequencies --  3581.7801              3700.7624              3700.7627
 Red. masses --     1.0167                 1.0907                 1.0907
 Frc consts  --     7.6848                 8.8007                 8.8007
 IR Inten    --    40.1795               504.3984               504.3947

 - Thermochemistry -
 -------------------
 Temperature   298.150 Kelvin.  Pressure   1.00000 Atm.
 Atom     1 has atomic number  8 and mass  15.99491

 Molecular mass:    19.01839 amu.
 Principal axes and moments of inertia in atomic units:
                           1         2         3
     Eigenvalues --     5.45167   5.45167   9.69636
           X           -0.22795   0.97367   0.00000
           Y            0.97367   0.22795   0.00000
           Z            0.00000   0.00000   1.00000
 This molecule is an oblate symmetric top.
 Rotational symmetry number  3.
 Rotational temperatures (Kelvin)     15.88758    15.88758     8.93261
 Rotational constants (GHZ):         331.04392   331.04392   186.12561
 Zero-point vibrational energy      90351.0 (Joules/Mol)
                                   21.59442 (Kcal/Mol)
 Vibrational temperatures:   1128.35  2401.29  2401.29  5153.38  5324.57
          (Kelvin)           5324.57

 Zero-point correction=                           0.034413 (Hartree/Particle)
 Thermal correction to Energy=                    0.037333
 Thermal correction to Enthalpy=                  0.038278
 Thermal correction to Gibbs Free Energy=         0.016303
 Sum of electronic and zero-point Energies=            -76.671223
 Sum of electronic and thermal Energies=               -76.668303
 Sum of electronic and thermal Enthalpies=             -76.667359
 Sum of electronic and thermal Free Energies=          -76.689333

                     E (Thermal)             CV                S
                      KCal/Mol        Cal/Mol-Kelvin    Cal/Mol-Kelvin
 Total                   23.427              6.721             46.250
 Electronic               0.000              0.000              0.000
 Translational            0.889              2.981             34.771
 Rotational               0.889              2.981             11.247
 Vibrational             21.650              0.759              0.232

 Optimization completed.
    -- Stationary point found.
 Normal termination of Gaussian 09 at Mon Mar  1 17:28:19 2021.
